<?xml version="1.0" encoding="UTF-8"?>

<!-- generated on 2024-03-15 12:37:11 by Eclipse SUMO sumo Version 1.14.1
<configuration xmlns:xsi="http://www.w3.org/2001/XMLSchema-instance" xsi:noNamespaceSchemaLocation="http://sumo.dlr.de/xsd/sumoConfiguration.xsd">

    <input>
        <net-file value="C:\Users\behnam.ojaghi\Sumo\2024-03-15-12-37-08\osm.net.xml"/>
        <route-files value="C:\Users\behnam.ojaghi\Sumo\2024-03-15-12-37-08\trips.trips.xml"/>
        <additional-files value="C:\Users\behnam.ojaghi\Sumo\2024-03-15-12-37-08\osm_stops.add.xml"/>
    </input>

    <output>
        <vehroute-output value="C:\Users\behnam.ojaghi\Sumo\2024-03-15-12-37-08\vehroutes.xml"/>
        <stop-output value="C:\Users\behnam.ojaghi\Sumo\2024-03-15-12-37-08\stopinfos.xml"/>
    </output>

    <time>
        <begin value="0"/>
    </time>

    <processing>
        <ignore-route-errors value="true"/>
    </processing>

    <routing>
        <device.rerouting.adaptation-interval value="0"/>
    </routing>

    <report>
        <aggregate-warnings value="5"/>
        <error-log value="C:\Users\behnam.ojaghi\Sumo\2024-03-15-12-37-08\trips.trips.xml.errorlog"/>
        <no-step-log value="true"/>
    </report>

</configuration>
-->

<routes xmlns:xsi="http://www.w3.org/2001/XMLSchema-instance" xsi:noNamespaceSchemaLocation="http://sumo.dlr.de/xsd/routes_file.xsd">
    <vehicle id="0_bus_C32:0" type="pt_bus" depart="15.00" departLane="0" arrival="56.00">
        <route edges="6066195"/>
        <stop busStop="7070301837" duration="30.00"/>
    </vehicle>

    <vehicle id="1_bus_C30:0" type="pt_bus" depart="133.00" departLane="0" arrival="192.00">
        <route edges="6066195 516904978#1"/>
        <stop busStop="7070301837" duration="30.00"/>
    </vehicle>

    <vehicle id="2_bus_C35:0" type="pt_bus" depart="165.00" departLane="0" arrival="211.00">
        <route edges="6066195"/>
        <stop busStop="7070301837" duration="30.00"/>
    </vehicle>

    <vehicle id="3_bus_C30:1" type="pt_bus" depart="383.00" departLane="1" arrival="477.00">
        <route edges="530892650#0 530892650#1 156830703#1 152645952#0 6066195"/>
        <stop busStop="7070301837" duration="30.00"/>
    </vehicle>

</routes>
