<?xml version="1.0" encoding="UTF-8"?>

<!-- generated on 2025-08-29 15:42:46 by Eclipse SUMO sumo Version 1.24.0
<sumoConfiguration xmlns:xsi="http://www.w3.org/2001/XMLSchema-instance" xsi:noNamespaceSchemaLocation="http://sumo.dlr.de/xsd/sumoConfiguration.xsd">

    <input>
        <net-file value="osm.net.xml.gz"/>
        <route-files value="osm_pt.rou.xml,osm.motorcycle.trips.xml,osm.passenger.trips.xml"/>
        <additional-files value="osm.poly.xml.gz,osm_stops.add.xml,output.add.xml"/>
    </input>

    <output>
        <tripinfo-output value="tripinfos.xml"/>
        <stop-output value="stopinfos.xml"/>
        <statistic-output value="stats.xml"/>
    </output>

    <time>
        <step-length value="1"/>
    </time>

    <processing>
        <ignore-route-errors value="true"/>
        <scale value="1"/>
        <tls.actuated.jam-threshold value="30"/>
    </processing>

    <routing>
        <device.rerouting.adaptation-steps value="18"/>
        <device.rerouting.adaptation-interval value="10"/>
    </routing>

    <report>
        <verbose value="true"/>
        <duration-log.statistics value="true"/>
        <no-step-log value="true"/>
    </report>

    <random_number>
        <random value="True"/>
    </random_number>

    <gui_only>
        <gui-settings-file value="osm.view.xml"/>
    </gui_only>

</sumoConfiguration>
-->

<meandata xmlns:xsi="http://www.w3.org/2001/XMLSchema-instance" xsi:noNamespaceSchemaLocation="http://sumo.dlr.de/xsd/meandata_file.xsd">
    <interval begin="0.00" end="1232.00" id="wizard_example">
        <edge id="-161424708#3" sampledSeconds="29.26" traveltime="2.18" overlapTraveltime="3.00" density="1.37" laneDensity="1.37" occupancy="0.62" waitingTime="0.00" timeLoss="2.41" speed="7.99" speedRelative="0.96" departed="0" arrived="1" entered="10" left="9" laneChangedFrom="0" laneChangedTo="0"/>
        <edge id="-161424711#6" sampledSeconds="331.72" traveltime="14.46" overlapTraveltime="15.49" density="2.94" laneDensity="2.94" occupancy="2.09" waitingTime="18.00" timeLoss="77.22" speed="6.40" speedRelative="0.77" departed="19" arrived="0" entered="4" left="23" laneChangedFrom="0" laneChangedTo="0"/>
        <edge id="-161424714" sampledSeconds="115.51" traveltime="11.24" overlapTraveltime="13.65" density="2.30" laneDensity="2.30" occupancy="2.03" waitingTime="2.00" timeLoss="16.25" speed="3.69" speedRelative="0.44" departed="0" arrived="0" entered="9" left="9" laneChangedFrom="0" laneChangedTo="0"/>
        <edge id="-6065718#2" sampledSeconds="323.23" traveltime="12.41" overlapTraveltime="14.17" density="12.64" laneDensity="12.64" occupancy="8.57" waitingTime="184.00" timeLoss="245.79" speed="2.00" speedRelative="0.24" departed="0" arrived="0" entered="23" left="23" laneChangedFrom="0" laneChangedTo="0"/>
        <edge id="-852348513#3" sampledSeconds="147.81" traveltime="17.94" overlapTraveltime="18.79" density="0.84" laneDensity="0.84" occupancy="0.55" waitingTime="0.00" timeLoss="10.85" speed="8.01" speedRelative="0.96" departed="0" arrived="8" entered="8" left="0" laneChangedFrom="0" laneChangedTo="0"/>
        <edge id="130416692#0" sampledSeconds="320.38" traveltime="3.70" overlapTraveltime="4.86" density="15.14" laneDensity="15.14" occupancy="6.03" waitingTime="0.00" timeLoss="48.91" speed="4.61" speedRelative="0.83" departed="0" arrived="0" entered="66" left="66" laneChangedFrom="0" laneChangedTo="0"/>
        <edge id="130416694#0" sampledSeconds="202.38" traveltime="2.39" overlapTraveltime="3.24" density="9.88" laneDensity="4.94" occupancy="2.14" waitingTime="0.00" timeLoss="26.19" speed="7.06" speedRelative="0.85" departed="0" arrived="1" entered="63" left="62" laneChangedFrom="47" laneChangedTo="47"/>
        <edge id="1360053236" sampledSeconds="3116.80" traveltime="46.24" overlapTraveltime="47.36" density="13.27" laneDensity="13.27" occupancy="6.86" waitingTime="117.00" timeLoss="707.50" speed="4.14" speedRelative="0.74" departed="0" arrived="9" entered="66" left="57" laneChangedFrom="0" laneChangedTo="0"/>
        <edge id="138469479" sampledSeconds="95.85" traveltime="9.13" overlapTraveltime="9.78" density="1.16" laneDensity="1.16" occupancy="0.55" waitingTime="0.00" timeLoss="10.67" speed="7.34" speedRelative="0.88" departed="0" arrived="10" entered="10" left="0" laneChangedFrom="0" laneChangedTo="0"/>
        <edge id="151735988#0" sampledSeconds="0.00" departed="0" arrived="0" entered="0" left="0" laneChangedFrom="0" laneChangedTo="0"/>
        <edge id="151735988#1" sampledSeconds="0.00" departed="0" arrived="0" entered="0" left="0" laneChangedFrom="0" laneChangedTo="0"/>
        <edge id="154543614#0" sampledSeconds="0.00" departed="0" arrived="0" entered="0" left="0" laneChangedFrom="0" laneChangedTo="0"/>
        <edge id="154543614#1" sampledSeconds="0.00" departed="0" arrived="0" entered="0" left="0" laneChangedFrom="0" laneChangedTo="0"/>
        <edge id="154545154#0" sampledSeconds="0.00" departed="0" arrived="0" entered="0" left="0" laneChangedFrom="0" laneChangedTo="0"/>
        <edge id="154545154#1" sampledSeconds="0.00" departed="0" arrived="0" entered="0" left="0" laneChangedFrom="0" laneChangedTo="0"/>
        <edge id="156043357" sampledSeconds="0.00" departed="0" arrived="0" entered="0" left="0" laneChangedFrom="0" laneChangedTo="0"/>
        <edge id="156932696#0" sampledSeconds="0.00" departed="0" arrived="0" entered="0" left="0" laneChangedFrom="0" laneChangedTo="0"/>
        <edge id="156932696#1" sampledSeconds="0.00" departed="0" arrived="0" entered="0" left="0" laneChangedFrom="0" laneChangedTo="0"/>
        <edge id="161424708#0" sampledSeconds="1092.91" traveltime="8.26" overlapTraveltime="9.41" density="56.79" laneDensity="56.79" occupancy="25.73" waitingTime="486.00" timeLoss="769.54" speed="2.23" speedRelative="0.27" departed="1" arrived="0" entered="116" left="117" laneChangedFrom="0" laneChangedTo="0"/>
        <edge id="161424709#0" sampledSeconds="165.48" traveltime="7.87" overlapTraveltime="9.91" density="9.35" laneDensity="4.68" occupancy="3.26" waitingTime="77.00" timeLoss="120.06" speed="2.29" speedRelative="0.28" departed="0" arrived="0" entered="17" left="17" laneChangedFrom="0" laneChangedTo="0"/>
        <edge id="161424711#0" sampledSeconds="331.09" traveltime="18.90" overlapTraveltime="20.47" density="2.93" laneDensity="2.93" occupancy="2.20" waitingTime="39.00" timeLoss="81.15" speed="4.86" speedRelative="0.58" departed="0" arrived="13" entered="17" left="4" laneChangedFrom="0" laneChangedTo="0"/>
        <edge id="164165974#0" sampledSeconds="0.00" departed="0" arrived="0" entered="0" left="0" laneChangedFrom="0" laneChangedTo="0"/>
        <edge id="164165974#1" sampledSeconds="0.00" departed="0" arrived="0" entered="0" left="0" laneChangedFrom="0" laneChangedTo="0"/>
        <edge id="27674217#0" sampledSeconds="0.00" departed="0" arrived="0" entered="0" left="0" laneChangedFrom="0" laneChangedTo="0"/>
        <edge id="27674217#1" sampledSeconds="0.00" departed="0" arrived="0" entered="0" left="0" laneChangedFrom="0" laneChangedTo="0"/>
        <edge id="27674226" sampledSeconds="698.59" traveltime="23.92" overlapTraveltime="24.86" density="3.56" laneDensity="3.56" occupancy="1.75" waitingTime="59.00" timeLoss="135.76" speed="6.62" speedRelative="0.79" departed="29" arrived="0" entered="0" left="29" laneChangedFrom="0" laneChangedTo="0"/>
        <edge id="27679335" sampledSeconds="0.00" departed="0" arrived="0" entered="0" left="0" laneChangedFrom="0" laneChangedTo="0"/>
        <edge id="28238522" sampledSeconds="188.57" traveltime="4.42" overlapTraveltime="5.21" density="4.79" laneDensity="2.40" occupancy="1.19" waitingTime="0.00" timeLoss="16.82" speed="7.26" speedRelative="0.87" departed="0" arrived="29" entered="38" left="9" laneChangedFrom="5" laneChangedTo="5"/>
        <edge id="31693234" sampledSeconds="174.06" traveltime="7.38" overlapTraveltime="8.03" density="2.56" laneDensity="2.56" occupancy="1.19" waitingTime="0.00" timeLoss="15.15" speed="7.50" speedRelative="0.90" departed="0" arrived="12" entered="22" left="10" laneChangedFrom="0" laneChangedTo="0"/>
        <edge id="408855746" sampledSeconds="389.90" traveltime="10.91" overlapTraveltime="11.91" density="6.15" laneDensity="6.15" occupancy="2.94" waitingTime="0.00" timeLoss="51.98" speed="4.74" speedRelative="0.85" departed="36" arrived="0" entered="0" left="36" laneChangedFrom="0" laneChangedTo="0"/>
        <edge id="42780861" sampledSeconds="141.97" traveltime="3.20" overlapTraveltime="3.70" density="3.80" laneDensity="1.90" occupancy="0.80" waitingTime="0.00" timeLoss="71.83" speed="9.55" speedRelative="0.43" departed="0" arrived="17" entered="39" left="22" laneChangedFrom="22" laneChangedTo="22"/>
        <edge id="471109428#0" sampledSeconds="0.00" departed="0" arrived="0" entered="0" left="0" laneChangedFrom="0" laneChangedTo="0"/>
        <edge id="471109428#1" sampledSeconds="0.00" departed="0" arrived="0" entered="0" left="0" laneChangedFrom="0" laneChangedTo="0"/>
        <edge id="6065718#0" sampledSeconds="65.48" traveltime="2.76" overlapTraveltime="3.71" density="2.53" laneDensity="2.53" occupancy="1.32" waitingTime="0.00" timeLoss="5.41" speed="7.69" speedRelative="0.92" departed="0" arrived="1" entered="18" left="17" laneChangedFrom="0" laneChangedTo="0"/>
        <edge id="6066208" sampledSeconds="13.27" traveltime="0.90" overlapTraveltime="1.99" density="1.60" laneDensity="1.60" occupancy="0.63" waitingTime="0.00" timeLoss="0.75" speed="7.59" speedRelative="0.91" departed="0" arrived="9" entered="9" left="0" laneChangedFrom="0" laneChangedTo="0"/>
        <edge id="673560718" sampledSeconds="681.98" traveltime="10.16" overlapTraveltime="11.00" density="7.54" laneDensity="3.77" occupancy="2.10" waitingTime="0.00" timeLoss="73.56" speed="7.23" speedRelative="0.87" departed="0" arrived="0" entered="62" left="62" laneChangedFrom="0" laneChangedTo="0"/>
        <edge id="673560719#0" sampledSeconds="558.56" traveltime="31.72" overlapTraveltime="33.02" density="2.28" laneDensity="1.14" occupancy="0.90" waitingTime="21.00" timeLoss="83.72" speed="6.27" speedRelative="0.75" departed="3" arrived="0" entered="14" left="17" laneChangedFrom="3" laneChangedTo="3"/>
        <edge id="764137063#0" sampledSeconds="449.25" traveltime="46.54" overlapTraveltime="41.90" density="17.74" laneDensity="8.87" occupancy="9.99" waitingTime="32.00" timeLoss="134.68" speed="0.77" speedRelative="0.09" departed="17" arrived="0" entered="0" left="17" laneChangedFrom="0" laneChangedTo="0"/>
        <edge id="852062314#0" sampledSeconds="513.32" traveltime="7.32" overlapTraveltime="8.17" density="7.98" laneDensity="7.98" occupancy="4.30" waitingTime="0.00" timeLoss="61.27" speed="7.14" speedRelative="0.86" departed="1" arrived="2" entered="62" left="61" laneChangedFrom="0" laneChangedTo="0"/>
        <edge id="852062315" sampledSeconds="1352.06" traveltime="20.81" overlapTraveltime="22.94" density="18.63" laneDensity="9.31" occupancy="7.26" waitingTime="239.00" timeLoss="461.53" speed="2.92" speedRelative="0.35" departed="2" arrived="28" entered="61" left="35" laneChangedFrom="21" laneChangedTo="21"/>
        <edge id="852348513#0" sampledSeconds="2333.35" traveltime="26.96" overlapTraveltime="27.81" density="13.18" laneDensity="13.18" occupancy="7.35" waitingTime="266.00" timeLoss="661.88" speed="5.37" speedRelative="0.64" departed="50" arrived="0" entered="36" left="86" laneChangedFrom="0" laneChangedTo="0"/>
        <edge id="852348513#4" sampledSeconds="1299.97" traveltime="9.65" overlapTraveltime="11.20" density="25.70" laneDensity="25.70" occupancy="11.97" waitingTime="241.00" timeLoss="640.45" speed="4.13" speedRelative="0.50" departed="0" arrived="0" entered="116" left="116" laneChangedFrom="0" laneChangedTo="0"/>
        <edge id="853628186" sampledSeconds="0.00" departed="0" arrived="0" entered="0" left="0" laneChangedFrom="0" laneChangedTo="0"/>
        <edge id="870690822" sampledSeconds="0.00" departed="0" arrived="0" entered="0" left="0" laneChangedFrom="0" laneChangedTo="0"/>
        <edge id="870690834" sampledSeconds="71.93" traveltime="0.48" overlapTraveltime="1.47" density="25.27" laneDensity="25.27" occupancy="4.10" waitingTime="0.00" timeLoss="20.95" speed="5.15" speedRelative="0.93" departed="0" arrived="18" entered="57" left="39" laneChangedFrom="0" laneChangedTo="0"/>
    </interval>
</meandata>
