<?xml version="1.0" encoding="UTF-8"?>

<!-- generated on 2024-03-15 18:43:27 by Eclipse SUMO sumo Version 1.14.1
<configuration xmlns:xsi="http://www.w3.org/2001/XMLSchema-instance" xsi:noNamespaceSchemaLocation="http://sumo.dlr.de/xsd/sumoConfiguration.xsd">

    <input>
        <net-file value="C:\Users\behnam.ojaghi\Sumo\2024-03-15-18-43-24\osm.net.xml"/>
        <route-files value="C:\Users\behnam.ojaghi\Sumo\2024-03-15-18-43-24\trips.trips.xml"/>
        <additional-files value="C:\Users\behnam.ojaghi\Sumo\2024-03-15-18-43-24\osm_stops.add.xml"/>
    </input>

    <output>
        <vehroute-output value="C:\Users\behnam.ojaghi\Sumo\2024-03-15-18-43-24\vehroutes.xml"/>
        <stop-output value="C:\Users\behnam.ojaghi\Sumo\2024-03-15-18-43-24\stopinfos.xml"/>
    </output>

    <time>
        <begin value="0"/>
    </time>

    <processing>
        <ignore-route-errors value="true"/>
    </processing>

    <routing>
        <device.rerouting.adaptation-interval value="0"/>
    </routing>

    <report>
        <aggregate-warnings value="5"/>
        <error-log value="C:\Users\behnam.ojaghi\Sumo\2024-03-15-18-43-24\trips.trips.xml.errorlog"/>
        <no-step-log value="true"/>
    </report>

</configuration>
-->

<routes xmlns:xsi="http://www.w3.org/2001/XMLSchema-instance" xsi:noNamespaceSchemaLocation="http://sumo.dlr.de/xsd/routes_file.xsd">
    <vehicle id="0_bus_C32:0" type="pt_bus" depart="15.00" departLane="0" arrival="74.00">
        <route edges="-672151375 43332286#2 667310225 158054192 158054226 316344464 98905677 -478163087"/>
        <stop busStop="-6294278478" duration="30.00"/>
    </vehicle>

    <vehicle id="1_bus_C31:0" type="pt_bus" depart="133.00" departLane="0" arrival="195.00">
        <route edges="-672151375 43332286#2 667310225 158054192 158054226 316344464 98905677 -478163087"/>
        <stop busStop="-6294278478" duration="30.00"/>
    </vehicle>

    <vehicle id="2_bus_C34:0" type="pt_bus" depart="172.00" departLane="0" arrival="235.00">
        <route edges="-672151375 43332286#2 667310225 158054192 158054226 316344464 98905677 -478163087"/>
        <stop busStop="-6294278478" duration="30.00"/>
    </vehicle>

    <vehicle id="3_bus_N8:0" type="pt_bus" depart="383.00" departLane="0" arrival="417.00">
        <route edges="-672151375"/>
        <stop busStop="-6294278478" duration="30.00"/>
    </vehicle>

    <vehicle id="4_bus_N8:1" type="pt_bus" depart="417.00" departLane="0" arrival="462.00">
        <route edges="-672151375 43332286#2 667310225 45562886#0 45562886#2"/>
        <stop busStop="-6294278478" duration="30.00"/>
    </vehicle>

    <vehicle id="5_bus_8:0" type="pt_bus" depart="453.00" departLane="0" arrival="518.00">
        <route edges="-672151375 43332286#2 667310225 158054192 158054226 316344464 98905677 -478163087"/>
        <stop busStop="-6294278478" duration="30.00"/>
    </vehicle>

</routes>
