<?xml version="1.0" encoding="UTF-8"?>

<!-- generated on 2024-03-15 19:07:03 by Eclipse SUMO sumo Version 1.14.1
<configuration xmlns:xsi="http://www.w3.org/2001/XMLSchema-instance" xsi:noNamespaceSchemaLocation="http://sumo.dlr.de/xsd/sumoConfiguration.xsd">

    <input>
        <net-file value="C:\Users\behnam.ojaghi\Sumo\2024-03-15-19-07-00\osm.net.xml"/>
        <route-files value="C:\Users\behnam.ojaghi\Sumo\2024-03-15-19-07-00\trips.trips.xml"/>
        <additional-files value="C:\Users\behnam.ojaghi\Sumo\2024-03-15-19-07-00\osm_stops.add.xml"/>
    </input>

    <output>
        <vehroute-output value="C:\Users\behnam.ojaghi\Sumo\2024-03-15-19-07-00\vehroutes.xml"/>
        <stop-output value="C:\Users\behnam.ojaghi\Sumo\2024-03-15-19-07-00\stopinfos.xml"/>
    </output>

    <time>
        <begin value="0"/>
    </time>

    <processing>
        <ignore-route-errors value="true"/>
    </processing>

    <routing>
        <device.rerouting.adaptation-interval value="0"/>
    </routing>

    <report>
        <aggregate-warnings value="5"/>
        <error-log value="C:\Users\behnam.ojaghi\Sumo\2024-03-15-19-07-00\trips.trips.xml.errorlog"/>
        <no-step-log value="true"/>
    </report>

</configuration>
-->

<routes xmlns:xsi="http://www.w3.org/2001/XMLSchema-instance" xsi:noNamespaceSchemaLocation="http://sumo.dlr.de/xsd/routes_file.xsd">
    <vehicle id="0_bus_N5:0" type="pt_bus" depart="3.00" departLane="0" arrival="39.00">
        <route edges="683569549#0"/>
        <stop busStop="6402593691" duration="30.00"/>
    </vehicle>

    <vehicle id="5_bus_0140:0" type="pt_bus" depart="55.00" departLane="0" arrival="96.00">
        <route edges="836066067"/>
        <stop busStop="304494167" duration="30.00"/>
    </vehicle>

    <vehicle id="2_bus_N9:0" type="pt_bus" depart="72.00" departLane="0" arrival="109.00">
        <route edges="683569549#0"/>
        <stop busStop="6402593691" duration="30.00"/>
    </vehicle>

    <vehicle id="7_bus_0225:0" type="pt_bus" depart="122.00" departLane="0" arrival="164.00">
        <route edges="836066067"/>
        <stop busStop="304494167" duration="30.00"/>
    </vehicle>

    <vehicle id="1_bus_N5:1" type="pt_bus" depart="38.00" departLane="0" arrival="167.00">
        <route edges="683569549#0 636267387 836066071#0 158065206#0 158065206#2 158065206#3 158065206#5 628243089#0 628243089#1"/>
        <stop busStop="6402593691" duration="30.00"/>
    </vehicle>

    <vehicle id="3_bus_N9:1" type="pt_bus" depart="108.00" departLane="0" arrival="196.00">
        <route edges="683569549#0 636267387 836066071#0 98905665#2 107397706#0 107397706#1"/>
        <stop busStop="6402593691" duration="30.00"/>
    </vehicle>

    <vehicle id="9_bus_0226:0" type="pt_bus" depart="189.00" departLane="0" arrival="230.00">
        <route edges="836066067"/>
        <stop busStop="304494167" duration="30.00"/>
    </vehicle>

    <vehicle id="4_bus_111:0" type="pt_bus" depart="144.00" departLane="0" arrival="245.00">
        <route edges="683569549#0 636267387 836066071#0 98905665#2 98905675"/>
        <stop busStop="6402593691" duration="30.00"/>
    </vehicle>

    <vehicle id="11_bus_0240:0" type="pt_bus" depart="256.00" departLane="0" arrival="297.00">
        <route edges="836066067"/>
        <stop busStop="304494167" duration="30.00"/>
    </vehicle>

    <vehicle id="6_bus_0140:1" type="pt_bus" depart="91.00" departLane="0" arrival="306.00">
        <route edges="836066067 158065211#0 158065211#1 158065211#3 836066069 158065206#0 158065206#2 158065206#3 158065206#5 628243089#0 628243089#1"/>
        <stop busStop="304494167" duration="30.00"/>
    </vehicle>

    <vehicle id="8_bus_0225:1" type="pt_bus" depart="158.00" departLane="0" arrival="357.00">
        <route edges="836066067 158065211#0 158065211#1 158065211#3 836066069 158065206#0 158065206#2 158065206#3 158065206#5 628243089#0 628243089#1"/>
        <stop busStop="304494167" duration="30.00"/>
    </vehicle>

    <vehicle id="13_bus_0242:0" type="pt_bus" depart="323.00" departLane="0" arrival="364.00">
        <route edges="836066067"/>
        <stop busStop="304494167" duration="30.00"/>
    </vehicle>

    <vehicle id="15_bus_0241:0" type="pt_bus" depart="389.00" departLane="0" arrival="430.00">
        <route edges="836066067"/>
        <stop busStop="304494167" duration="30.00"/>
    </vehicle>

    <vehicle id="10_bus_0226:1" type="pt_bus" depart="225.00" departLane="0" arrival="458.00">
        <route edges="836066067 158065211#0 158065211#1 158065211#3 836066069 158065206#0 158065206#2 158065206#3 158065206#5 628243089#0 628243089#1"/>
        <stop busStop="304494167" duration="30.00"/>
    </vehicle>

    <vehicle id="28_bus_N3:0" type="pt_bus" depart="439.00" departLane="0" arrival="475.00">
        <route edges="683569549#0"/>
        <stop busStop="6402593691" duration="30.00"/>
    </vehicle>

    <vehicle id="12_bus_0240:1" type="pt_bus" depart="292.00" departLane="0" arrival="510.00">
        <route edges="836066067 158065211#0 158065211#1 158065211#3 836066069 158065206#0 158065206#2 158065206#3 158065206#5 628243089#0 628243089#1"/>
        <stop busStop="304494167" duration="30.00"/>
    </vehicle>

    <vehicle id="27_bus_N1:0" type="pt_bus" depart="406.00" departLane="0" arrival="529.00">
        <route edges="683569549#0 636267387 836066071#0 158065206#0 158065206#2 158065206#3 158065206#5 628243089#0 628243089#1"/>
        <stop busStop="6402593691" duration="30.00"/>
    </vehicle>

    <vehicle id="17_bus_0325:0" type="pt_bus" depart="493.00" departLane="0" arrival="537.00">
        <route edges="836066067"/>
        <stop busStop="304494167" duration="30.00"/>
    </vehicle>

    <vehicle id="14_bus_0242:1" type="pt_bus" depart="358.00" departLane="0" arrival="570.00">
        <route edges="836066067 158065211#0 158065211#1 158065211#3 836066069 158065206#0 158065206#2 158065206#3 158065206#5 628243089#0 628243089#1"/>
        <stop busStop="304494167" duration="30.00"/>
    </vehicle>

    <vehicle id="35_bus_N1:1" type="pt_bus" depart="556.00" departLane="0" arrival="592.00">
        <route edges="683569549#0"/>
        <stop busStop="6402593691" duration="30.00"/>
    </vehicle>

    <vehicle id="33_bus_33:0" type="pt_bus" depart="484.00" departLane="0" arrival="608.00">
        <route edges="683569549#0 636267387 836066071#0 98905665#2 98905675"/>
        <stop busStop="6402593691" duration="30.00"/>
    </vehicle>

    <vehicle id="34_bus_N8:0" type="pt_bus" depart="520.00" departLane="0" arrival="612.00">
        <route edges="683569549#0 636267387 836066071#0 98905665#2 98905675"/>
        <stop busStop="6402593691" duration="30.00"/>
    </vehicle>

    <vehicle id="25_bus_0122B:0" type="pt_bus" depart="383.00" departLane="0" arrival="642.00">
        <route edges="158061271#0 158061271#5 10501843#2 10501843#5 836066067"/>
        <stop busStop="5931035185" duration="30.00"/>
    </vehicle>

    <vehicle id="23_bus_0340:0" type="pt_bus" depart="362.00" departLane="0" arrival="675.00">
        <route edges="158061271#0 158061271#5 10501843#2 10501843#5 836066067 158065211#0 158065211#1 158065211#3 836066069 158065206#0 158065206#2 158065206#3 158065206#5 628243089#0 628243089#1"/>
        <stop busStop="304494167" duration="30.00"/>
    </vehicle>

    <vehicle id="30_bus_0124:1" type="pt_bus" depart="437.00" departLane="0" arrival="681.00">
        <route edges="158061271#0 158061271#5 10501843#2 10501843#5 836066067"/>
        <stop busStop="5931035185" duration="30.00"/>
    </vehicle>

    <vehicle id="31_bus_0126:0" type="pt_bus" depart="443.00" departLane="0" arrival="718.00">
        <route edges="158061271#0 158061271#5 10501843#2 10501843#5 836066067"/>
        <stop busStop="5931035185" duration="30.00"/>
    </vehicle>

    <vehicle id="24_bus_0340:1" type="pt_bus" depart="371.00" departLane="0" arrival="726.00">
        <route edges="158061271#0 158061271#5 10501843#2 10501843#5 836066067 158065211#0 158065211#1 158065211#3 836066069 158065206#0 158065206#2 158065206#3 158065206#5 628243089#0 628243089#1"/>
        <stop busStop="304494167" duration="30.00"/>
    </vehicle>

    <vehicle id="39_bus_11:0" type="pt_bus" depart="625.00" departLane="0" arrival="730.00">
        <route edges="683569549#0 636267387 836066071#0 158065206#0 158065206#2 158065206#3 158065206#5 628243089#0 628243089#1"/>
        <stop busStop="6402593691" duration="30.00"/>
    </vehicle>

    <vehicle id="36_bus_N3:1" type="pt_bus" depart="592.00" departLane="0" arrival="733.00">
        <route edges="683569549#0 636267387 836066071#0 158065206#0 158065206#2 158065206#3 158065206#5 628243089#0 628243089#1"/>
        <stop busStop="6402593691" duration="30.00"/>
    </vehicle>

    <vehicle id="19_bus_0335:0" type="pt_bus" depart="715.00" departLane="0" arrival="757.00">
        <route edges="836066067"/>
        <stop busStop="304494167" duration="30.00"/>
    </vehicle>

    <vehicle id="38_bus_0122A:1" type="pt_bus" depart="535.00" departLane="0" arrival="763.00">
        <route edges="158061271#0 158061271#5 10501843#2 10501843#5 836066067"/>
        <stop busStop="5931035185" duration="30.00"/>
    </vehicle>

    <vehicle id="40_bus_21:0" type="pt_bus" depart="658.00" departLane="0" arrival="796.00">
        <route edges="683569549#0 636267387 836066071#0 158065206#0 158065206#2 158065206#3 158065206#5 628243089#0 628243089#1"/>
        <stop busStop="6402593691" duration="30.00"/>
    </vehicle>

    <vehicle id="21_bus_0336:0" type="pt_bus" depart="782.00" departLane="0" arrival="827.00">
        <route edges="836066067"/>
        <stop busStop="304494167" duration="30.00"/>
    </vehicle>

    <vehicle id="16_bus_0241:1" type="pt_bus" depart="425.00" departLane="0" arrival="934.00">
        <route edges="836066067 836066067 158065211#0 158065211#1 158065211#3 836066069 158065206#0 158065206#2 158065206#3 158065206#5 628243089#0 628243089#1"/>
        <stop busStop="304494167" duration="30.00"/>
    </vehicle>

    <vehicle id="18_bus_0325:1" type="pt_bus" depart="562.00" departLane="0" arrival="1234.00">
        <route edges="836066067 836066067 158065211#0 158065211#1 158065211#3 836066069 158065206#0 158065206#2 158065206#3 158065206#5 628243089#0 628243089#1"/>
        <stop busStop="304494167" duration="30.00"/>
    </vehicle>

    <vehicle id="26_bus_0122B:1" type="pt_bus" depart="855.00" departLane="0" arrival="1290.00">
        <route edges="836066067 158065211#0 158065211#1 158065211#3 836066069 158065206#0 158065206#2 158065206#3 158065206#5 628243089#0 628243089#1"/>
        <stop busStop="5931035185" duration="30.00"/>
    </vehicle>

    <vehicle id="29_bus_0124:0" type="pt_bus" depart="1082.00" departLane="0" arrival="1317.00">
        <route edges="836066067 158065211#0 158065211#1 158065211#3 836066069 158065206#0 158065206#2 158065206#3 158065206#5 628243089#0 628243089#1"/>
        <stop busStop="5931035185" duration="30.00"/>
    </vehicle>

    <vehicle id="32_bus_0126:1" type="pt_bus" depart="1119.00" departLane="0" arrival="1321.00">
        <route edges="836066067 158065211#0 158065211#1 158065211#3 836066069 158065206#0 158065206#2 158065206#3 158065206#5 628243089#0 628243089#1"/>
        <stop busStop="5931035185" duration="30.00"/>
    </vehicle>

    <vehicle id="37_bus_0122A:0" type="pt_bus" depart="1156.00" departLane="0" arrival="1404.00">
        <route edges="836066067 158065211#0 158065211#1 158065211#3 836066069 158065206#0 158065206#2 158065206#3 158065206#5 628243089#0 628243089#1"/>
        <stop busStop="5931035185" duration="30.00"/>
    </vehicle>

    <vehicle id="20_bus_0335:1" type="pt_bus" depart="746.00" departLane="0" arrival="1553.00">
        <route edges="836066067 836066067 158065211#0 158065211#1 158065211#3 836066069 158065206#0 158065206#2 158065206#3 158065206#5 628243089#0 628243089#1"/>
        <stop busStop="304494167" duration="30.00"/>
    </vehicle>

    <vehicle id="22_bus_0336:1" type="pt_bus" depart="818.00" departLane="0" arrival="1850.00">
        <route edges="836066067 836066067 158065211#0 158065211#1 158065211#3 836066069 158065206#0 158065206#2 158065206#3 158065206#5 628243089#0 628243089#1"/>
        <stop busStop="304494167" duration="30.00"/>
    </vehicle>

</routes>
