<?xml version="1.0" encoding="UTF-8"?>

<!-- generated on 2024-01-30 11:35:44 by Eclipse SUMO sumo Version 1.19.0
<configuration xmlns:xsi="http://www.w3.org/2001/XMLSchema-instance" xsi:noNamespaceSchemaLocation="http://sumo.dlr.de/xsd/sumoConfiguration.xsd">

    <input>
        <net-file value="test.net.xml"/>
        <route-files value="test.rou.xml"/>
    </input>

    <output>
        <emission-output value="my_emission_file.xml"/>
    </output>

    <time>
        <begin value="0"/>
        <end value="2000"/>
    </time>

</configuration>
-->

<emission-export xmlns:xsi="http://www.w3.org/2001/XMLSchema-instance" xsi:noNamespaceSchemaLocation="http://sumo.dlr.de/xsd/emission_file.xsd">
    <timestep time="0.00">
        <vehicle id="0" eclass="HBEFA3/PC_G_EU4" CO2="2624.72" CO="164.78" HC="0.81" NOx="1.20" PMx="0.07" fuel="837.22" electricity="0.00" noise="55.94" route="!0" type="DEFAULT_VEHTYPE" waiting="0.00" lane="905419080#1_0" pos="5.10" speed="0.00" angle="127.31" x="404.29" y="254.55"/>
    </timestep>
    <timestep time="1.00">
        <vehicle id="0" eclass="HBEFA3/PC_G_EU4" CO2="3063.54" CO="147.54" HC="0.74" NOx="1.37" PMx="0.07" fuel="977.17" electricity="0.00" noise="63.32" route="!0" type="DEFAULT_VEHTYPE" waiting="0.00" lane="905419080#1_0" pos="6.64" speed="1.54" angle="127.31" x="405.52" y="253.62"/>
    </timestep>
    <timestep time="2.00">
        <vehicle id="0" eclass="HBEFA3/PC_G_EU4" CO2="3387.32" CO="132.05" HC="0.68" NOx="1.48" PMx="0.07" fuel="1080.44" electricity="0.00" noise="63.27" route="!0" type="DEFAULT_VEHTYPE" waiting="0.00" lane="905419080#1_0" pos="9.59" speed="2.95" angle="128.27" x="407.81" y="251.77"/>
    </timestep>
    <timestep time="3.00">
        <vehicle id="0" eclass="HBEFA3/PC_G_EU4" CO2="4827.67" CO="132.37" HC="0.72" NOx="2.11" PMx="0.10" fuel="1539.82" electricity="0.00" noise="66.94" route="!0" type="DEFAULT_VEHTYPE" waiting="0.00" lane="905419080#1_0" pos="14.57" speed="4.99" angle="131.36" x="411.55" y="248.47"/>
        <vehicle id="2" eclass="HBEFA3/PC_G_EU4" CO2="2624.72" CO="164.78" HC="0.81" NOx="1.20" PMx="0.07" fuel="837.22" electricity="0.00" noise="55.94" route="!2" type="DEFAULT_VEHTYPE" waiting="0.00" lane="905419080#1_0" pos="5.10" speed="0.00" angle="127.31" x="404.29" y="254.55"/>
    </timestep>
    <timestep time="4.00">
        <vehicle id="0" eclass="HBEFA3/PC_G_EU4" CO2="4784.10" CO="111.36" HC="0.62" NOx="2.05" PMx="0.09" fuel="1525.92" electricity="0.00" noise="65.61" route="!0" type="DEFAULT_VEHTYPE" waiting="0.00" lane="905419080#1_0" pos="21.13" speed="6.55" angle="131.36" x="416.46" y="244.15"/>
        <vehicle id="2" eclass="HBEFA3/PC_G_EU4" CO2="3128.71" CO="147.41" HC="0.74" NOx="1.40" PMx="0.07" fuel="997.96" electricity="0.00" noise="63.75" route="!2" type="DEFAULT_VEHTYPE" waiting="0.00" lane="905419080#1_0" pos="6.73" speed="1.63" angle="127.31" x="405.59" y="253.56"/>
        <vehicle id="4" eclass="HBEFA3/PC_G_EU4" CO2="2624.72" CO="164.78" HC="0.81" NOx="1.20" PMx="0.07" fuel="837.22" electricity="0.00" noise="55.94" route="!4" type="DEFAULT_VEHTYPE" waiting="0.00" lane="28061415#1_0" pos="5.10" speed="0.00" angle="314.28" x="671.64" y="37.26"/>
    </timestep>
    <timestep time="5.00">
        <vehicle id="0" eclass="HBEFA3/PC_G_EU4" CO2="5851.20" CO="113.36" HC="0.65" NOx="2.50" PMx="0.11" fuel="1866.26" electricity="0.00" noise="67.19" route="!0" type="DEFAULT_VEHTYPE" waiting="0.00" lane="905419080#1_0" pos="29.42" speed="8.29" angle="131.36" x="422.69" y="238.67"/>
        <vehicle id="2" eclass="HBEFA3/PC_G_EU4" CO2="4594.66" CO="142.27" HC="0.76" NOx="2.03" PMx="0.10" fuel="1465.51" electricity="0.00" noise="67.62" route="!2" type="DEFAULT_VEHTYPE" waiting="0.00" lane="905419080#1_0" pos="10.67" speed="3.93" angle="129.14" x="408.62" y="251.06"/>
        <vehicle id="4" eclass="HBEFA3/PC_G_EU4" CO2="3220.52" CO="147.38" HC="0.75" NOx="1.44" PMx="0.07" fuel="1027.24" electricity="0.00" noise="64.31" route="!4" type="DEFAULT_VEHTYPE" waiting="0.00" lane="28061415#1_0" pos="6.85" speed="1.75" angle="312.11" x="670.32" y="38.41"/>
        <vehicle id="5" eclass="HBEFA3/PC_G_EU4" CO2="2624.72" CO="164.78" HC="0.81" NOx="1.20" PMx="0.07" fuel="837.22" electricity="0.00" noise="55.94" route="!5" type="DEFAULT_VEHTYPE" waiting="0.00" lane="-38900454#1_0" pos="5.10" speed="0.00" angle="213.83" x="684.01" y="343.90"/>
    </timestep>
    <timestep time="6.00">
        <vehicle id="0" eclass="HBEFA3/PC_G_EU4" CO2="8326.31" CO="142.22" HC="0.85" NOx="3.61" PMx="0.17" fuel="2655.69" electricity="0.00" noise="70.43" route="!0" type="DEFAULT_VEHTYPE" waiting="0.00" lane="905419080#1_0" pos="39.97" speed="10.55" angle="131.36" x="430.60" y="231.71"/>
        <vehicle id="2" eclass="HBEFA3/PC_G_EU4" CO2="5501.28" CO="132.14" HC="0.73" NOx="2.40" PMx="0.11" fuel="1754.66" electricity="0.00" noise="67.82" route="!2" type="DEFAULT_VEHTYPE" waiting="0.00" lane="905419080#1_0" pos="16.73" speed="6.07" angle="131.36" x="413.17" y="247.05"/>
        <vehicle id="4" eclass="HBEFA3/PC_G_EU4" CO2="4072.23" CO="135.53" HC="0.71" NOx="1.79" PMx="0.09" fuel="1298.88" electricity="0.00" noise="65.78" route="!4" type="DEFAULT_VEHTYPE" waiting="0.00" lane="28061415#1_0" pos="10.51" speed="3.66" angle="311.05" x="667.56" y="40.82"/>
        <vehicle id="5" eclass="HBEFA3/PC_G_EU4" CO2="2955.53" CO="148.03" HC="0.74" NOx="1.32" PMx="0.07" fuel="942.73" electricity="0.00" noise="62.53" route="!5" type="DEFAULT_VEHTYPE" waiting="0.00" lane="-38900454#1_0" pos="6.48" speed="1.38" angle="213.83" x="683.24" y="342.76"/>
    </timestep>
    <timestep time="7.00">
        <vehicle id="0" eclass="HBEFA3/PC_G_EU4" CO2="8492.53" CO="130.11" HC="0.80" NOx="3.64" PMx="0.17" fuel="2708.70" electricity="0.00" noise="70.05" route="!0" type="DEFAULT_VEHTYPE" waiting="0.00" lane="905419080#1_0" pos="52.44" speed="12.47" angle="131.36" x="439.95" y="223.47"/>
        <vehicle id="2" eclass="HBEFA3/PC_G_EU4" CO2="7129.89" CO="138.79" HC="0.80" NOx="3.10" PMx="0.15" fuel="2274.10" electricity="0.00" noise="69.63" route="!2" type="DEFAULT_VEHTYPE" waiting="0.00" lane="905419080#1_0" pos="25.11" speed="8.38" angle="131.36" x="419.45" y="241.52"/>
        <vehicle id="4" eclass="HBEFA3/PC_G_EU4" CO2="5268.60" CO="131.43" HC="0.72" NOx="2.30" PMx="0.11" fuel="1680.45" electricity="0.00" noise="67.48" route="!4" type="DEFAULT_VEHTYPE" waiting="0.00" lane="28061415#1_0" pos="16.25" speed="5.75" angle="312.74" x="663.32" y="44.71"/>
        <vehicle id="5" eclass="HBEFA3/PC_G_EU4" CO2="4796.47" CO="146.96" HC="0.78" NOx="2.12" PMx="0.10" fuel="1529.88" electricity="0.00" noise="68.56" route="!5" type="DEFAULT_VEHTYPE" waiting="0.00" lane="-38900454#1_0" pos="10.37" speed="3.90" angle="213.83" x="681.07" y="339.52"/>
    </timestep>
    <timestep time="8.00">
        <vehicle id="0" eclass="HBEFA3/PC_G_EU4" CO2="10361.53" CO="155.23" HC="0.96" NOx="4.47" PMx="0.22" fuel="3304.81" electricity="0.00" noise="71.79" route="!0" type="DEFAULT_VEHTYPE" waiting="0.00" lane="905419080#1_0" pos="67.01" speed="14.57" angle="131.36" x="450.88" y="213.85"/>
        <vehicle id="2" eclass="HBEFA3/PC_G_EU4" CO2="9111.64" CO="155.80" HC="0.93" NOx="3.98" PMx="0.19" fuel="2906.16" electricity="0.00" noise="71.46" route="!2" type="DEFAULT_VEHTYPE" waiting="0.00" lane="905419080#1_0" pos="35.95" speed="10.84" angle="131.36" x="427.59" y="234.36"/>
        <vehicle id="4" eclass="HBEFA3/PC_G_EU4" CO2="5120.33" CO="109.05" HC="0.62" NOx="2.18" PMx="0.10" fuel="1633.16" electricity="0.00" noise="66.06" route="!4" type="DEFAULT_VEHTYPE" waiting="0.00" lane="28061415#1_0" pos="23.58" speed="7.33" angle="313.99" x="658.04" y="49.80"/>
        <vehicle id="5" eclass="HBEFA3/PC_G_EU4" CO2="5944.12" CO="139.03" HC="0.77" NOx="2.60" PMx="0.12" fuel="1895.91" electricity="0.00" noise="68.83" route="!5" type="DEFAULT_VEHTYPE" waiting="0.00" lane="-38900454#1_0" pos="16.62" speed="6.25" angle="213.81" x="677.60" y="334.33"/>
        <vehicle id="6" eclass="HBEFA3/PC_G_EU4" CO2="2624.72" CO="164.78" HC="0.81" NOx="1.20" PMx="0.07" fuel="837.22" electricity="0.00" noise="55.94" route="!6" type="DEFAULT_VEHTYPE" waiting="0.00" lane="-38900454#1_0" pos="5.10" speed="0.00" angle="213.83" x="684.01" y="343.90"/>
    </timestep>
    <timestep time="9.00">
        <vehicle id="0" eclass="HBEFA3/PC_G_EU4" CO2="1616.16" CO="0.00" HC="0.00" NOx="0.35" PMx="0.00" fuel="515.50" electricity="0.00" noise="64.46" route="!0" type="DEFAULT_VEHTYPE" waiting="0.00" lane="905419080#1_0" pos="81.37" speed="14.37" angle="131.36" x="461.66" y="204.36"/>
        <vehicle id="2" eclass="HBEFA3/PC_G_EU4" CO2="6628.19" CO="93.54" HC="0.58" NOx="2.77" PMx="0.13" fuel="2114.07" electricity="0.00" noise="67.83" route="!2" type="DEFAULT_VEHTYPE" waiting="0.00" lane="905419080#1_0" pos="48.18" speed="12.23" angle="131.36" x="436.76" y="226.28"/>
        <vehicle id="4" eclass="HBEFA3/PC_G_EU4" CO2="5796.42" CO="105.63" HC="0.62" NOx="2.46" PMx="0.11" fuel="1848.79" electricity="0.00" noise="66.90" route="!4" type="DEFAULT_VEHTYPE" waiting="0.00" lane="28061415#1_0" pos="32.51" speed="8.92" angle="313.99" x="651.61" y="56.01"/>
        <vehicle id="5" eclass="HBEFA3/PC_G_EU4" CO2="6964.34" CO="134.52" HC="0.78" NOx="3.02" PMx="0.14" fuel="2221.30" electricity="0.00" noise="69.25" route="!5" type="DEFAULT_VEHTYPE" waiting="0.00" lane="-38900454#1_0" pos="25.08" speed="8.46" angle="213.81" x="672.89" y="327.31"/>
        <vehicle id="6" eclass="HBEFA3/PC_G_EU4" CO2="2949.42" CO="148.07" HC="0.74" NOx="1.32" PMx="0.07" fuel="940.77" electricity="0.00" noise="62.48" route="!6" type="DEFAULT_VEHTYPE" waiting="0.00" lane="-38900454#1_0" pos="6.47" speed="1.37" angle="213.83" x="683.25" y="342.77"/>
        <vehicle id="9" eclass="HBEFA3/PC_G_EU4" CO2="2624.72" CO="164.78" HC="0.81" NOx="1.20" PMx="0.07" fuel="837.22" electricity="0.00" noise="55.94" route="!9" type="DEFAULT_VEHTYPE" waiting="0.00" lane="905420979_0" pos="5.10" speed="0.00" angle="355.97" x="568.77" y="140.55"/>
    </timestep>
    <timestep time="10.00">
        <vehicle id="0" eclass="HBEFA3/PC_G_EU4" CO2="2257.60" CO="0.00" HC="0.00" NOx="0.65" PMx="0.01" fuel="720.08" electricity="0.00" noise="64.80" route="!0" type="DEFAULT_VEHTYPE" waiting="0.00" lane="905419080#1_0" pos="95.71" speed="14.33" angle="131.36" x="472.41" y="194.90"/>
        <vehicle id="2" eclass="HBEFA3/PC_G_EU4" CO2="0.00" CO="0.00" HC="0.00" NOx="0.00" PMx="0.00" fuel="0.00" electricity="0.00" noise="62.51" route="!2" type="DEFAULT_VEHTYPE" waiting="0.00" lane="905419080#1_0" pos="60.13" speed="11.95" angle="131.36" x="445.72" y="218.39"/>
        <vehicle id="4" eclass="HBEFA3/PC_G_EU4" CO2="8139.33" CO="134.35" HC="0.81" NOx="3.51" PMx="0.17" fuel="2596.05" electricity="0.00" noise="69.97" route="!4" type="DEFAULT_VEHTYPE" waiting="0.00" lane="28061415#1_0" pos="43.52" speed="11.01" angle="313.99" x="643.68" y="63.67"/>
        <vehicle id="5" eclass="HBEFA3/PC_G_EU4" CO2="8702.95" CO="147.84" HC="0.88" NOx="3.78" PMx="0.18" fuel="2775.81" electricity="0.00" noise="70.88" route="!5" type="DEFAULT_VEHTYPE" waiting="0.00" lane="-38900454#1_0" pos="35.87" speed="10.79" angle="213.81" x="666.89" y="318.34"/>
        <vehicle id="6" eclass="HBEFA3/PC_G_EU4" CO2="3660.59" CO="135.81" HC="0.70" NOx="1.61" PMx="0.08" fuel="1167.59" electricity="0.00" noise="64.63" route="!6" type="DEFAULT_VEHTYPE" waiting="0.00" lane="-38900454#1_0" pos="9.54" speed="3.07" angle="213.83" x="681.54" y="340.22"/>
        <vehicle id="9" eclass="HBEFA3/PC_G_EU4" CO2="3421.84" CO="147.81" HC="0.75" NOx="1.53" PMx="0.08" fuel="1091.45" electricity="0.00" noise="65.42" route="!9" type="DEFAULT_VEHTYPE" waiting="0.00" lane="905420979_0" pos="7.08" speed="1.98" angle="349.59" x="568.19" y="142.44"/>
    </timestep>
    <timestep time="11.00">
        <vehicle id="0" eclass="HBEFA3/PC_G_EU4" CO2="0.00" CO="0.00" HC="0.00" NOx="0.00" PMx="0.00" fuel="0.00" electricity="0.00" noise="63.02" route="!0" type="DEFAULT_VEHTYPE" waiting="0.00" lane="905419080#1_0" pos="109.34" speed="13.64" angle="130.91" x="482.67" y="185.93"/>
        <vehicle id="11" eclass="HBEFA3/PC_G_EU4" CO2="2624.72" CO="164.78" HC="0.81" NOx="1.20" PMx="0.07" fuel="837.22" electricity="0.00" noise="55.94" route="!11" type="DEFAULT_VEHTYPE" waiting="0.00" lane="28061415#1_0" pos="5.10" speed="0.00" angle="314.28" x="671.64" y="37.26"/>
        <vehicle id="2" eclass="HBEFA3/PC_G_EU4" CO2="3633.35" CO="30.69" HC="0.22" NOx="1.35" PMx="0.05" fuel="1158.88" electricity="0.00" noise="64.71" route="!2" type="DEFAULT_VEHTYPE" waiting="0.00" lane="905419080#1_0" pos="72.52" speed="12.39" angle="131.36" x="455.02" y="210.21"/>
        <vehicle id="4" eclass="HBEFA3/PC_G_EU4" CO2="8031.83" CO="118.65" HC="0.73" NOx="3.42" PMx="0.16" fuel="2561.76" electricity="0.00" noise="69.46" route="!4" type="DEFAULT_VEHTYPE" waiting="0.00" lane="28061415#1_0" pos="56.27" speed="12.75" angle="311.36" x="634.23" y="72.25"/>
        <vehicle id="5" eclass="HBEFA3/PC_G_EU4" CO2="8923.63" CO="136.72" HC="0.84" NOx="3.84" PMx="0.18" fuel="2846.20" electricity="0.00" noise="70.51" route="!5" type="DEFAULT_VEHTYPE" waiting="0.00" lane="-38900454#1_0" pos="48.66" speed="12.79" angle="213.80" x="659.77" y="307.71"/>
        <vehicle id="6" eclass="HBEFA3/PC_G_EU4" CO2="4377.49" CO="125.42" HC="0.67" NOx="1.90" PMx="0.09" fuel="1396.24" electricity="0.00" noise="65.59" route="!6" type="DEFAULT_VEHTYPE" waiting="0.00" lane="-38900454#1_0" pos="14.35" speed="4.82" angle="213.82" x="678.86" y="336.22"/>
        <vehicle id="9" eclass="HBEFA3/PC_G_EU4" CO2="4628.31" CO="139.33" HC="0.74" NOx="2.04" PMx="0.10" fuel="1476.24" electricity="0.00" noise="67.31" route="!9" type="DEFAULT_VEHTYPE" waiting="0.00" lane="905420979_0" pos="11.27" speed="4.19" angle="337.24" x="566.51" y="146.24"/>
    </timestep>
    <timestep time="12.00">
        <vehicle id="0" eclass="HBEFA3/PC_G_EU4" CO2="1630.32" CO="0.00" HC="0.00" NOx="0.38" PMx="0.00" fuel="520.01" electricity="0.00" noise="63.82" route="!0" type="DEFAULT_VEHTYPE" waiting="0.00" lane="905419080#1_0" pos="122.79" speed="13.45" angle="130.91" x="492.83" y="177.13"/>
        <vehicle id="11" eclass="HBEFA3/PC_G_EU4" CO2="3601.20" CO="148.59" HC="0.76" NOx="1.61" PMx="0.08" fuel="1148.66" electricity="0.00" noise="66.29" route="!11" type="DEFAULT_VEHTYPE" waiting="0.00" lane="28061415#1_0" pos="7.26" speed="2.16" angle="311.60" x="670.01" y="38.69"/>
        <vehicle id="2" eclass="HBEFA3/PC_G_EU4" CO2="1419.36" CO="0.00" HC="0.00" NOx="0.31" PMx="0.00" fuel="452.73" electricity="0.00" noise="62.72" route="!2" type="DEFAULT_VEHTYPE" waiting="0.00" lane="905419080#1_0" pos="84.66" speed="12.14" angle="131.36" x="464.12" y="202.19"/>
        <vehicle id="4" eclass="HBEFA3/PC_G_EU4" CO2="5018.72" CO="51.46" HC="0.35" NOx="1.98" PMx="0.08" fuel="1600.73" electricity="0.00" noise="66.44" route="!4" type="DEFAULT_VEHTYPE" waiting="0.00" lane="28061415#1_0" pos="69.79" speed="13.52" angle="311.36" x="624.07" y="81.19"/>
        <vehicle id="5" eclass="HBEFA3/PC_G_EU4" CO2="10998.24" CO="166.14" HC="1.02" NOx="4.76" PMx="0.24" fuel="3507.88" electricity="0.00" noise="72.37" route="!5" type="DEFAULT_VEHTYPE" waiting="0.00" lane="-38900454#1_0" pos="63.64" speed="14.98" angle="213.80" x="651.44" y="295.26"/>
        <vehicle id="6" eclass="HBEFA3/PC_G_EU4" CO2="6138.54" CO="133.60" HC="0.75" NOx="2.67" PMx="0.13" fuel="1957.91" electricity="0.00" noise="68.56" route="!6" type="DEFAULT_VEHTYPE" waiting="0.00" lane="-38900454#1_0" pos="21.37" speed="7.02" angle="213.81" x="674.95" y="330.38"/>
        <vehicle id="9" eclass="HBEFA3/PC_G_EU4" CO2="4063.90" CO="109.57" HC="0.59" NOx="1.73" PMx="0.08" fuel="1296.22" electricity="0.00" noise="64.13" route="!9" type="DEFAULT_VEHTYPE" waiting="0.00" lane=":833355568_3_0" pos="3.31" speed="5.52" angle="323.39" x="563.25" y="150.68"/>
    </timestep>
    <timestep time="13.00">
        <vehicle id="0" eclass="HBEFA3/PC_G_EU4" CO2="7278.89" CO="90.98" HC="0.59" NOx="3.01" PMx="0.14" fuel="2321.61" electricity="0.00" noise="68.78" route="!0" type="DEFAULT_VEHTYPE" waiting="0.00" lane="905419080#1_0" pos="137.50" speed="14.71" angle="130.91" x="503.94" y="167.50"/>
        <vehicle id="11" eclass="HBEFA3/PC_G_EU4" CO2="4275.36" CO="133.49" HC="0.71" NOx="1.87" PMx="0.09" fuel="1363.67" electricity="0.00" noise="66.04" route="!11" type="DEFAULT_VEHTYPE" waiting="0.00" lane="28061415#1_0" pos="11.35" speed="4.09" angle="311.05" x="666.92" y="41.37"/>
        <vehicle id="13" eclass="HBEFA3/PC_G_EU4" CO2="2624.72" CO="164.78" HC="0.81" NOx="1.20" PMx="0.07" fuel="837.22" electricity="0.00" noise="55.94" route="!13" type="DEFAULT_VEHTYPE" waiting="0.00" lane="-38900454#1_0" pos="5.10" speed="0.00" angle="213.83" x="684.01" y="343.90"/>
        <vehicle id="2" eclass="HBEFA3/PC_G_EU4" CO2="2260.45" CO="4.15" HC="0.07" NOx="0.71" PMx="0.01" fuel="720.99" electricity="0.00" noise="63.38" route="!2" type="DEFAULT_VEHTYPE" waiting="0.00" lane="905419080#1_0" pos="96.82" speed="12.16" angle="131.36" x="473.24" y="194.16"/>
        <vehicle id="4" eclass="HBEFA3/PC_G_EU4" CO2="1880.10" CO="0.00" HC="0.00" NOx="0.50" PMx="0.00" fuel="599.68" electricity="0.00" noise="63.95" route="!4" type="DEFAULT_VEHTYPE" waiting="0.00" lane="28061415#1_0" pos="83.19" speed="13.40" angle="311.36" x="614.00" y="90.06"/>
        <vehicle id="5" eclass="HBEFA3/PC_G_EU4" CO2="0.00" CO="0.00" HC="0.00" NOx="0.00" PMx="0.00" fuel="0.00" electricity="0.00" noise="63.66" route="!5" type="DEFAULT_VEHTYPE" waiting="0.00" lane="-38900454#1_0" pos="77.98" speed="14.34" angle="213.80" x="643.46" y="283.34"/>
        <vehicle id="6" eclass="HBEFA3/PC_G_EU4" CO2="5997.85" CO="111.67" HC="0.65" NOx="2.56" PMx="0.12" fuel="1913.04" electricity="0.00" noise="67.31" route="!6" type="DEFAULT_VEHTYPE" waiting="0.00" lane="-38900454#1_0" pos="30.11" speed="8.74" angle="213.81" x="670.09" y="323.12"/>
        <vehicle id="9" eclass="HBEFA3/PC_G_EU4" CO2="4452.68" CO="101.09" HC="0.56" NOx="1.88" PMx="0.08" fuel="1420.21" electricity="0.00" noise="64.71" route="!9" type="DEFAULT_VEHTYPE" waiting="0.00" lane=":833355568_3_0" pos="10.15" speed="6.84" angle="299.11" x="557.50" y="154.27"/>
    </timestep>
    <timestep time="14.00">
        <vehicle id="0" eclass="HBEFA3/PC_G_EU4" CO2="2014.91" CO="0.00" HC="0.00" NOx="0.53" PMx="0.00" fuel="642.68" electricity="0.00" noise="64.85" route="!0" type="DEFAULT_VEHTYPE" waiting="0.00" lane="905419080#1_0" pos="152.11" speed="14.61" angle="130.86" x="514.98" y="157.94"/>
        <vehicle id="11" eclass="HBEFA3/PC_G_EU4" CO2="4161.75" CO="111.93" HC="0.61" NOx="1.78" PMx="0.08" fuel="1327.43" electricity="0.00" noise="64.43" route="!11" type="DEFAULT_VEHTYPE" waiting="0.00" lane="28061415#1_0" pos="16.84" speed="5.49" angle="313.09" x="662.90" y="45.12"/>
        <vehicle id="13" eclass="HBEFA3/PC_G_EU4" CO2="3647.43" CO="148.84" HC="0.76" NOx="1.63" PMx="0.08" fuel="1163.40" electricity="0.00" noise="66.50" route="!13" type="DEFAULT_VEHTYPE" waiting="0.00" lane="-38900454#1_0" pos="7.31" speed="2.21" angle="213.83" x="682.78" y="342.07"/>
        <vehicle id="2" eclass="HBEFA3/PC_G_EU4" CO2="3112.27" CO="19.66" HC="0.16" NOx="1.11" PMx="0.03" fuel="992.68" electricity="0.00" noise="64.27" route="!2" type="DEFAULT_VEHTYPE" waiting="0.00" lane="905419080#1_0" pos="109.25" speed="12.43" angle="130.91" x="482.60" y="185.99"/>
        <vehicle id="4" eclass="HBEFA3/PC_G_EU4" CO2="2349.29" CO="0.00" HC="0.04" NOx="0.72" PMx="0.01" fuel="749.33" electricity="0.00" noise="64.27" route="!4" type="DEFAULT_VEHTYPE" waiting="0.00" lane="28061415#1_0" pos="96.61" speed="13.42" angle="311.36" x="603.92" y="98.94"/>
        <vehicle id="5" eclass="HBEFA3/PC_G_EU4" CO2="4128.92" CO="25.76" HC="0.21" NOx="1.53" PMx="0.06" fuel="1316.93" electricity="0.00" noise="66.27" route="!5" type="DEFAULT_VEHTYPE" waiting="0.00" lane="-38900454#1_0" pos="92.76" speed="14.78" angle="213.83" x="635.23" y="271.06"/>
        <vehicle id="6" eclass="HBEFA3/PC_G_EU4" CO2="8381.80" CO="140.04" HC="0.84" NOx="3.63" PMx="0.17" fuel="2673.38" electricity="0.00" noise="70.35" route="!6" type="DEFAULT_VEHTYPE" waiting="0.00" lane="-38900454#1_0" pos="41.04" speed="10.93" angle="213.81" x="664.01" y="314.04"/>
        <vehicle id="9" eclass="HBEFA3/PC_G_EU4" CO2="6366.46" CO="119.46" HC="0.70" NOx="2.74" PMx="0.13" fuel="2030.60" electricity="0.00" noise="67.99" route="!9" type="DEFAULT_VEHTYPE" waiting="0.00" lane="905420978_0" pos="5.56" speed="8.72" angle="274.25" x="548.96" y="155.64"/>
    </timestep>
    <timestep time="15.00">
        <vehicle id="0" eclass="HBEFA3/PC_G_EU4" CO2="0.00" CO="0.00" HC="0.00" NOx="0.00" PMx="0.00" fuel="0.00" electricity="0.00" noise="57.19" route="!0" type="DEFAULT_VEHTYPE" waiting="0.00" lane=":308131040_0_0" pos="0.70" speed="10.11" angle="130.60" x="522.65" y="151.37"/>
        <vehicle id="11" eclass="HBEFA3/PC_G_EU4" CO2="5688.45" CO="120.33" HC="0.68" NOx="2.45" PMx="0.11" fuel="1814.36" electricity="0.00" noise="67.30" route="!11" type="DEFAULT_VEHTYPE" waiting="0.00" lane="28061415#1_0" pos="24.21" speed="7.37" angle="313.99" x="657.59" y="50.24"/>
        <vehicle id="13" eclass="HBEFA3/PC_G_EU4" CO2="5430.40" CO="147.29" HC="0.80" NOx="2.40" PMx="0.12" fuel="1732.06" electricity="0.00" noise="69.27" route="!13" type="DEFAULT_VEHTYPE" waiting="0.00" lane="-38900454#1_0" pos="12.11" speed="4.80" angle="213.83" x="680.11" y="338.08"/>
        <vehicle id="2" eclass="HBEFA3/PC_G_EU4" CO2="1883.32" CO="0.00" HC="0.02" NOx="0.53" PMx="0.00" fuel="600.71" electricity="0.00" noise="63.20" route="!2" type="DEFAULT_VEHTYPE" waiting="0.00" lane="905419080#1_0" pos="121.57" speed="12.33" angle="130.91" x="491.91" y="177.92"/>
        <vehicle id="4" eclass="HBEFA3/PC_G_EU4" CO2="0.00" CO="0.00" HC="0.00" NOx="0.00" PMx="0.00" fuel="0.00" electricity="0.00" noise="62.39" route="!4" type="DEFAULT_VEHTYPE" waiting="0.00" lane="28061415#1_0" pos="109.37" speed="12.76" angle="311.36" x="594.33" y="107.38"/>
        <vehicle id="5" eclass="HBEFA3/PC_G_EU4" CO2="3078.17" CO="3.26" HC="0.08" NOx="1.03" PMx="0.03" fuel="981.80" electricity="0.00" noise="65.67" route="!5" type="DEFAULT_VEHTYPE" waiting="0.00" lane="-38900454#1_0" pos="107.71" speed="14.95" angle="212.68" x="627.06" y="258.55"/>
        <vehicle id="6" eclass="HBEFA3/PC_G_EU4" CO2="6450.02" CO="89.67" HC="0.56" NOx="2.68" PMx="0.12" fuel="2057.25" electricity="0.00" noise="67.63" route="!6" type="DEFAULT_VEHTYPE" waiting="0.00" lane="-38900454#1_0" pos="53.30" speed="12.25" angle="213.80" x="657.19" y="303.86"/>
        <vehicle id="9" eclass="HBEFA3/PC_G_EU4" CO2="7453.98" CO="123.45" HC="0.74" NOx="3.20" PMx="0.15" fuel="2377.46" electricity="0.00" noise="69.09" route="!9" type="DEFAULT_VEHTYPE" waiting="0.00" lane=":833355846_1_0" pos="7.17" speed="10.64" angle="243.18" x="539.04" y="152.29"/>
    </timestep>
    <timestep time="16.00">
        <vehicle id="0" eclass="HBEFA3/PC_G_EU4" CO2="0.00" CO="0.00" HC="0.00" NOx="0.00" PMx="0.00" fuel="0.00" electricity="0.00" noise="49.91" route="!0" type="DEFAULT_VEHTYPE" waiting="0.00" lane="905419080#2_0" pos="1.26" speed="5.61" angle="131.02" x="526.87" y="147.70"/>
        <vehicle id="11" eclass="HBEFA3/PC_G_EU4" CO2="6681.48" CO="120.41" HC="0.71" NOx="2.87" PMx="0.13" fuel="2131.08" electricity="0.00" noise="68.33" route="!11" type="DEFAULT_VEHTYPE" waiting="0.00" lane="28061415#1_0" pos="33.47" speed="9.26" angle="313.99" x="650.92" y="56.68"/>
        <vehicle id="13" eclass="HBEFA3/PC_G_EU4" CO2="5749.31" CO="127.69" HC="0.72" NOx="2.49" PMx="0.12" fuel="1833.77" electricity="0.00" noise="67.78" route="!13" type="DEFAULT_VEHTYPE" waiting="0.00" lane="-38900454#1_0" pos="18.96" speed="6.85" angle="213.81" x="676.30" y="332.39"/>
        <vehicle id="16" eclass="HBEFA3/PC_G_EU4" CO2="2624.72" CO="164.78" HC="0.81" NOx="1.20" PMx="0.07" fuel="837.22" electricity="0.00" noise="55.94" route="!16" type="DEFAULT_VEHTYPE" waiting="0.00" lane="39184800#1_0" pos="5.10" speed="0.00" angle="25.43" x="482.82" y="33.00"/>
        <vehicle id="2" eclass="HBEFA3/PC_G_EU4" CO2="0.00" CO="0.00" HC="0.00" NOx="0.00" PMx="0.00" fuel="0.00" electricity="0.00" noise="61.99" route="!2" type="DEFAULT_VEHTYPE" waiting="0.00" lane="905419080#1_0" pos="133.42" speed="11.85" angle="130.91" x="500.86" y="170.17"/>
        <vehicle id="4" eclass="HBEFA3/PC_G_EU4" CO2="2242.31" CO="0.00" HC="0.05" NOx="0.69" PMx="0.01" fuel="715.21" electricity="0.00" noise="63.77" route="!4" type="DEFAULT_VEHTYPE" waiting="0.00" lane="28061415#1_0" pos="122.13" speed="12.76" angle="311.36" x="584.74" y="115.82"/>
        <vehicle id="5" eclass="HBEFA3/PC_G_EU4" CO2="0.00" CO="0.00" HC="0.00" NOx="0.00" PMx="0.00" fuel="0.00" electricity="0.00" noise="62.55" route="!5" type="DEFAULT_VEHTYPE" waiting="0.00" lane="-38900454#1_0" pos="121.51" speed="13.80" angle="212.68" x="619.60" y="246.93"/>
        <vehicle id="6" eclass="HBEFA3/PC_G_EU4" CO2="6438.80" CO="81.24" HC="0.52" NOx="2.65" PMx="0.12" fuel="2053.66" electricity="0.00" noise="67.77" route="!6" type="DEFAULT_VEHTYPE" waiting="0.00" lane="-38900454#1_0" pos="66.73" speed="13.44" angle="213.80" x="649.72" y="292.69"/>
        <vehicle id="9" eclass="HBEFA3/PC_G_EU4" CO2="8024.05" CO="120.80" HC="0.74" NOx="3.42" PMx="0.16" fuel="2559.28" electricity="0.00" noise="69.49" route="!9" type="DEFAULT_VEHTYPE" waiting="0.00" lane=":833355738_0_0" pos="5.58" speed="12.43" angle="207.78" x="531.63" y="142.57"/>
    </timestep>
    <timestep time="17.00">
        <vehicle id="0" eclass="HBEFA3/PC_G_EU4" CO2="0.00" CO="0.00" HC="0.00" NOx="0.00" PMx="0.00" fuel="0.00" electricity="0.00" noise="37.65" route="!0" type="DEFAULT_VEHTYPE" waiting="0.00" lane="905419080#2_0" pos="2.37" speed="1.11" angle="131.14" x="527.71" y="146.96"/>
        <vehicle id="11" eclass="HBEFA3/PC_G_EU4" CO2="6948.01" CO="110.36" HC="0.67" NOx="2.95" PMx="0.14" fuel="2216.08" electricity="0.00" noise="68.30" route="!11" type="DEFAULT_VEHTYPE" waiting="0.00" lane="28061415#1_0" pos="44.42" speed="10.95" angle="313.99" x="643.03" y="64.29"/>
        <vehicle id="13" eclass="HBEFA3/PC_G_EU4" CO2="8240.91" CO="151.54" HC="0.89" NOx="3.60" PMx="0.17" fuel="2628.45" electricity="0.00" noise="70.98" route="!13" type="DEFAULT_VEHTYPE" waiting="0.00" lane="-38900454#1_0" pos="28.32" speed="9.36" angle="213.81" x="671.09" y="324.61"/>
        <vehicle id="16" eclass="HBEFA3/PC_G_EU4" CO2="3427.30" CO="147.82" HC="0.75" NOx="1.53" PMx="0.08" fuel="1093.19" electricity="0.00" noise="65.45" route="!16" type="DEFAULT_VEHTYPE" waiting="0.00" lane="39184800#1_0" pos="7.09" speed="1.99" angle="28.79" x="483.90" y="34.67"/>
        <vehicle id="2" eclass="HBEFA3/PC_G_EU4" CO2="1889.74" CO="0.00" HC="0.04" NOx="0.55" PMx="0.00" fuel="602.76" electricity="0.00" noise="62.80" route="!2" type="DEFAULT_VEHTYPE" waiting="0.00" lane="905419080#1_0" pos="145.17" speed="11.75" angle="130.91" x="509.73" y="162.48"/>
        <vehicle id="4" eclass="HBEFA3/PC_G_EU4" CO2="0.00" CO="0.00" HC="0.00" NOx="0.00" PMx="0.00" fuel="0.00" electricity="0.00" noise="56.68" route="!4" type="DEFAULT_VEHTYPE" waiting="0.00" lane="28061415#1_0" pos="131.66" speed="9.53" angle="311.36" x="577.58" y="122.13"/>
        <vehicle id="5" eclass="HBEFA3/PC_G_EU4" CO2="2557.37" CO="0.00" HC="0.05" NOx="0.81" PMx="0.02" fuel="815.69" electricity="0.00" noise="64.69" route="!5" type="DEFAULT_VEHTYPE" waiting="0.00" lane="-38900454#1_0" pos="135.38" speed="13.86" angle="212.68" x="612.12" y="235.26"/>
        <vehicle id="6" eclass="HBEFA3/PC_G_EU4" CO2="2566.21" CO="1.03" HC="0.06" NOx="0.82" PMx="0.02" fuel="818.51" electricity="0.00" noise="64.48" route="!6" type="DEFAULT_VEHTYPE" waiting="0.00" lane="-38900454#1_0" pos="80.24" speed="13.51" angle="213.80" x="642.20" y="281.47"/>
        <vehicle id="9" eclass="HBEFA3/PC_G_EU4" CO2="0.00" CO="0.00" HC="0.00" NOx="0.00" PMx="0.00" fuel="0.00" electricity="0.00" noise="61.44" route="!9" type="DEFAULT_VEHTYPE" waiting="0.00" lane="905420981#0_0" pos="7.21" speed="11.72" angle="169.92" x="531.94" y="131.02"/>
    </timestep>
    <timestep time="18.00">
        <vehicle id="0" eclass="HBEFA3/PC_G_EU4" CO2="4428.19" CO="145.34" HC="0.77" NOx="1.96" PMx="0.10" fuel="1412.41" electricity="0.00" noise="67.76" route="!0" type="DEFAULT_VEHTYPE" waiting="0.00" lane=":833355738_2_0" pos="3.14" speed="3.49" angle="139.22" x="529.81" y="144.21"/>
        <vehicle id="11" eclass="HBEFA3/PC_G_EU4" CO2="9239.73" CO="141.76" HC="0.87" NOx="3.98" PMx="0.19" fuel="2947.02" electricity="0.00" noise="70.84" route="!11" type="DEFAULT_VEHTYPE" waiting="0.00" lane="28061415#1_0" pos="57.43" speed="13.00" angle="311.36" x="633.36" y="73.01"/>
        <vehicle id="13" eclass="HBEFA3/PC_G_EU4" CO2="9240.70" CO="151.53" HC="0.91" NOx="4.02" PMx="0.20" fuel="2947.33" electricity="0.00" noise="71.25" route="!13" type="DEFAULT_VEHTYPE" waiting="0.00" lane="-38900454#1_0" pos="40.00" speed="11.68" angle="213.81" x="664.59" y="314.91"/>
        <vehicle id="16" eclass="HBEFA3/PC_G_EU4" CO2="3623.24" CO="128.87" HC="0.67" NOx="1.58" PMx="0.07" fuel="1155.68" electricity="0.00" noise="63.90" route="!16" type="DEFAULT_VEHTYPE" waiting="0.00" lane="39184800#1_0" pos="10.57" speed="3.48" angle="32.99" x="485.79" y="37.59"/>
        <vehicle id="2" eclass="HBEFA3/PC_G_EU4" CO2="4566.53" CO="49.31" HC="0.33" NOx="1.79" PMx="0.07" fuel="1456.51" electricity="0.00" noise="65.64" route="!2" type="DEFAULT_VEHTYPE" waiting="0.00" lane="905419080#1_0" pos="157.64" speed="12.47" angle="130.56" x="519.18" y="154.35"/>
        <vehicle id="4" eclass="HBEFA3/PC_G_EU4" CO2="0.00" CO="0.00" HC="0.00" NOx="0.00" PMx="0.00" fuel="0.00" electricity="0.00" noise="50.16" route="!4" type="DEFAULT_VEHTYPE" waiting="0.00" lane=":308130969_0_0" pos="3.78" speed="5.62" angle="312.24" x="573.45" y="125.86"/>