<?xml version="1.0" encoding="UTF-8"?>

<!-- generated on 2025-08-14 12:18:53 by Eclipse SUMO sumo Version 1.24.0
<sumoConfiguration xmlns:xsi="http://www.w3.org/2001/XMLSchema-instance" xsi:noNamespaceSchemaLocation="http://sumo.dlr.de/xsd/sumoConfiguration.xsd">

    <input>
        <net-file value=".\osm.net.xml.gz"/>
        <route-files value=".\osm_pt.rou.xml,.\osm.motorcycle.trips.xml,.\osm.passenger.trips.xml"/>
        <additional-files value=".\osm.poly.xml.gz,.\osm_stops.add.xml,.\output.add.xml"/>
    </input>

    <output>
        <tripinfo-output value="tripinfo.out.xml"/>
        <stop-output value=".\stopinfos.xml"/>
        <statistic-output value=".\stats.xml"/>
    </output>

    <processing>
        <ignore-route-errors value="true"/>
        <scale value="0.5"/>
        <tls.actuated.jam-threshold value="30"/>
    </processing>

    <routing>
        <device.rerouting.adaptation-steps value="18"/>
        <device.rerouting.adaptation-interval value="10"/>
    </routing>

    <report>
        <verbose value="true"/>
        <duration-log.statistics value="true"/>
        <no-step-log value="true"/>
    </report>

    <gui_only>
        <gui-settings-file value=".\osm.view.xml"/>
    </gui_only>

</sumoConfiguration>
-->

<tripinfos xmlns:xsi="http://www.w3.org/2001/XMLSchema-instance" xsi:noNamespaceSchemaLocation="http://sumo.dlr.de/xsd/tripinfo_file.xsd">
    <tripinfo id="motorcycle0" depart="0.00" departLane="376306178_0" departPos="2.30" departSpeed="5.89" departDelay="0.00" arrival="50.00" arrivalLane="-376306178_0" arrivalPos="9.47" arrivalSpeed="5.10" duration="50.00" routeLength="347.58" waitingTime="0.00" waitingCount="0" stopTime="0.00" timeLoss="9.85" rerouteNo="1" devices="tripinfo_motorcycle0 routing_motorcycle0" vType="motorcycle_motorcycle" speedFactor="1.06" vaporized=""/>
    <tripinfo id="pt_bus_0275:0.0" depart="15.00" departLane="171825747#0_0" departPos="12.10" departSpeed="0.00" departDelay="0.00" arrival="60.00" arrivalLane="171825747#0_0" arrivalPos="79.30" arrivalSpeed="1.16" duration="45.00" routeLength="67.20" waitingTime="0.00" waitingCount="0" stopTime="30.00" timeLoss="6.80" rerouteNo="0" devices="tripinfo_pt_bus_0275:0.0" vType="pt_bus" speedFactor="1.00" vaporized=""/>
    <tripinfo id="veh1" depart="3.00" departLane="1162743956#0_2" departPos="5.10" departSpeed="8.58" departDelay="0.75" arrival="69.00" arrivalLane="179416932#0_0" arrivalPos="53.90" arrivalSpeed="8.32" duration="66.00" routeLength="512.21" waitingTime="0.00" waitingCount="0" stopTime="0.00" timeLoss="6.27" rerouteNo="0" devices="tripinfo_veh1" vType="veh_passenger" speedFactor="1.03" vaporized=""/>
    <tripinfo id="pt_bus_111:0.0" depart="3.00" departLane="202438589#0_0" departPos="12.10" departSpeed="0.00" departDelay="0.00" arrival="81.00" arrivalLane="378872530#0_0" arrivalPos="68.18" arrivalSpeed="7.97" duration="78.00" routeLength="288.18" waitingTime="0.00" waitingCount="0" stopTime="32.00" timeLoss="10.95" rerouteNo="0" devices="tripinfo_pt_bus_111:0.0" vType="pt_bus" speedFactor="1.00" vaporized=""/>
    <tripinfo id="veh8" depart="18.00" departLane="1162743956#0_1" departPos="5.10" departSpeed="7.81" departDelay="0.04" arrival="86.00" arrivalLane="378872530#0_1" arrivalPos="68.18" arrivalSpeed="6.62" duration="68.00" routeLength="414.53" waitingTime="5.00" waitingCount="1" stopTime="0.00" timeLoss="14.75" rerouteNo="0" devices="tripinfo_veh8" vType="veh_passenger" speedFactor="0.94" vaporized=""/>
    <tripinfo id="veh12" depart="27.00" departLane="179959896#0_1" departPos="5.10" departSpeed="0.00" departDelay="0.06" arrival="96.00" arrivalLane="179416932#0_0" arrivalPos="53.90" arrivalSpeed="8.99" duration="69.00" routeLength="567.34" waitingTime="0.00" waitingCount="0" stopTime="0.00" timeLoss="6.32" rerouteNo="0" devices="tripinfo_veh12" vType="veh_passenger" speedFactor="1.09" vaporized=""/>
    <tripinfo id="veh14" depart="32.00" departLane="179959896#0_2" departPos="5.10" departSpeed="0.00" departDelay="0.56" arrival="98.00" arrivalLane="509283334#0_1" arrivalPos="175.26" arrivalSpeed="8.68" duration="66.00" routeLength="416.48" waitingTime="8.00" waitingCount="1" stopTime="0.00" timeLoss="18.23" rerouteNo="0" devices="tripinfo_veh14" vType="veh_passenger" speedFactor="1.05" vaporized=""/>
    <tripinfo id="pt_bus_0175:0.0" depart="21.00" departLane="171825747#0_0" departPos="12.10" departSpeed="0.00" departDelay="0.00" arrival="98.00" arrivalLane="171825747#0_0" arrivalPos="79.30" arrivalSpeed="1.14" duration="77.00" routeLength="67.20" waitingTime="26.00" waitingCount="1" stopTime="30.00" timeLoss="38.81" rerouteNo="0" devices="tripinfo_pt_bus_0175:0.0" vType="pt_bus" speedFactor="1.00" vaporized=""/>
    <tripinfo id="veh5" depart="12.00" departLane="161424705#0_0" departPos="5.10" departSpeed="8.71" departDelay="0.77" arrival="104.00" arrivalLane="171825747#0_1" arrivalPos="79.30" arrivalSpeed="8.20" duration="92.00" routeLength="639.03" waitingTime="8.00" waitingCount="1" stopTime="0.00" timeLoss="18.59" rerouteNo="0" devices="tripinfo_veh5" vType="veh_passenger" speedFactor="1.05" vaporized=""/>
    <tripinfo id="veh23" depart="52.00" departLane="1162743957#0_3" departPos="5.10" departSpeed="0.00" departDelay="0.36" arrival="107.00" arrivalLane="179416932#0_0" arrivalPos="53.90" arrivalSpeed="7.66" duration="55.00" routeLength="396.88" waitingTime="0.00" waitingCount="0" stopTime="0.00" timeLoss="7.59" rerouteNo="0" devices="tripinfo_veh23" vType="veh_passenger" speedFactor="1.02" vaporized=""/>
    <tripinfo id="veh19" depart="43.00" departLane="129301668#0_0" departPos="5.10" departSpeed="0.00" departDelay="0.34" arrival="109.00" arrivalLane="378872530#0_0" arrivalPos="68.18" arrivalSpeed="6.75" duration="66.00" routeLength="428.52" waitingTime="0.00" waitingCount="0" stopTime="0.00" timeLoss="7.27" rerouteNo="0" devices="tripinfo_veh19" vType="veh_passenger" speedFactor="0.88" vaporized=""/>
    <tripinfo id="veh17" depart="39.00" departLane="6066208_0" departPos="5.10" departSpeed="3.33" departDelay="0.83" arrival="111.00" arrivalLane="130306724#0_0" arrivalPos="67.66" arrivalSpeed="7.50" duration="72.00" routeLength="533.04" waitingTime="0.00" waitingCount="0" stopTime="0.00" timeLoss="6.43" rerouteNo="0" devices="tripinfo_veh17" vType="veh_passenger" speedFactor="0.99" vaporized=""/>
    <tripinfo id="veh25" depart="57.00" departLane="1162743957#0_3" departPos="5.10" departSpeed="0.00" departDelay="0.87" arrival="112.00" arrivalLane="179416932#0_0" arrivalPos="53.90" arrivalSpeed="7.15" duration="55.00" routeLength="396.88" waitingTime="0.00" waitingCount="0" stopTime="0.00" timeLoss="5.51" rerouteNo="0" devices="tripinfo_veh25" vType="veh_passenger" speedFactor="0.97" vaporized=""/>
    <tripinfo id="veh21" depart="48.00" departLane="161424705#0_0" departPos="5.10" departSpeed="7.80" departDelay="0.85" arrival="118.00" arrivalLane="509283334#0_0" arrivalPos="175.26" arrivalSpeed="7.12" duration="70.00" routeLength="431.40" waitingTime="5.00" waitingCount="1" stopTime="0.00" timeLoss="13.81" rerouteNo="0" devices="tripinfo_veh21" vType="veh_passenger" speedFactor="0.94" vaporized=""/>
    <tripinfo id="veh34" depart="77.00" departLane="1162743956#0_2" departPos="5.10" departSpeed="9.82" departDelay="0.66" arrival="126.00" arrivalLane="378872530#0_0" arrivalPos="68.18" arrivalSpeed="8.93" duration="49.00" routeLength="414.53" waitingTime="0.00" waitingCount="0" stopTime="0.00" timeLoss="5.88" rerouteNo="0" devices="tripinfo_veh34" vType="veh_passenger" speedFactor="1.18" vaporized=""/>
    <tripinfo id="veh32" depart="72.00" departLane="673560717_1" departPos="2.85" departSpeed="0.00" departDelay="0.15" arrival="129.00" arrivalLane="509283334#0_0" arrivalPos="175.26" arrivalSpeed="8.28" duration="57.00" routeLength="434.38" waitingTime="0.00" waitingCount="0" stopTime="0.00" timeLoss="10.44" rerouteNo="0" devices="tripinfo_veh32" vType="veh_passenger" speedFactor="1.13" vaporized=""/>
    <tripinfo id="pt_bus_0174B:0.0" depart="58.00" departLane="675971774#0_0" departPos="12.10" departSpeed="0.00" departDelay="0.00" arrival="137.00" arrivalLane="171825747#0_0" arrivalPos="79.30" arrivalSpeed="0.85" duration="79.00" routeLength="150.23" waitingTime="17.00" waitingCount="1" stopTime="30.00" timeLoss="30.61" rerouteNo="0" devices="tripinfo_pt_bus_0174B:0.0" vType="pt_bus" speedFactor="1.00" vaporized=""/>
    <tripinfo id="veh27" depart="61.00" departLane="1162743956#0_1" departPos="5.10" departSpeed="6.88" departDelay="0.37" arrival="138.00" arrivalLane="378872530#0_0" arrivalPos="68.18" arrivalSpeed="6.54" duration="77.00" routeLength="414.53" waitingTime="8.00" waitingCount="1" stopTime="0.00" timeLoss="15.92" rerouteNo="0" devices="tripinfo_veh27" vType="veh_passenger" speedFactor="0.83" vaporized=""/>
    <tripinfo id="veh36" depart="81.00" departLane="184573004#0_0" departPos="5.10" departSpeed="0.00" departDelay="0.17" arrival="161.00" arrivalLane="171825747#0_1" arrivalPos="79.30" arrivalSpeed="7.85" duration="80.00" routeLength="543.17" waitingTime="2.00" waitingCount="1" stopTime="0.00" timeLoss="14.66" rerouteNo="0" devices="tripinfo_veh36" vType="veh_passenger" speedFactor="1.01" vaporized=""/>
    <tripinfo id="veh29" depart="66.00" departLane="376306178_0" departPos="5.10" departSpeed="5.10" departDelay="0.88" arrival="165.00" arrivalLane="166107155#0_0" arrivalPos="193.24" arrivalSpeed="7.57" duration="99.00" routeLength="633.61" waitingTime="3.00" waitingCount="1" stopTime="0.00" timeLoss="15.13" rerouteNo="0" devices="tripinfo_veh29" vType="veh_passenger" speedFactor="0.92" vaporized=""/>
    <tripinfo id="pt_bus_0170A:0.0" depart="93.00" departLane="675971774#0_0" departPos="12.10" departSpeed="0.00" departDelay="0.00" arrival="175.00" arrivalLane="171825747#0_0" arrivalPos="79.30" arrivalSpeed="0.88" duration="82.00" routeLength="150.23" waitingTime="19.00" waitingCount="1" stopTime="29.00" timeLoss="34.62" rerouteNo="0" devices="tripinfo_pt_bus_0170A:0.0" vType="pt_bus" speedFactor="1.00" vaporized=""/>
    <tripinfo id="veh51" depart="115.00" departLane="1162743956#0_2" departPos="5.10" departSpeed="9.10" departDelay="0.48" arrival="181.00" arrivalLane="179416932#0_0" arrivalPos="53.90" arrivalSpeed="8.26" duration="66.00" routeLength="512.21" waitingTime="2.00" waitingCount="1" stopTime="0.00" timeLoss="9.45" rerouteNo="0" devices="tripinfo_veh51" vType="veh_passenger" speedFactor="1.09" vaporized=""/>
    <tripinfo id="veh40" depart="90.00" departLane="161424705#0_0" departPos="5.10" departSpeed="8.29" departDelay="0.18" arrival="197.00" arrivalLane="171825747#0_1" arrivalPos="79.30" arrivalSpeed="7.22" duration="107.00" routeLength="639.03" waitingTime="14.00" waitingCount="2" stopTime="0.00" timeLoss="29.59" rerouteNo="0" devices="tripinfo_veh40" vType="veh_passenger" speedFactor="0.99" vaporized=""/>
    <tripinfo id="veh46" depart="104.00" departLane="179959896#0_1" departPos="5.10" departSpeed="0.00" departDelay="0.71" arrival="199.00" arrivalLane="171825747#0_1" arrivalPos="79.30" arrivalSpeed="9.15" duration="95.00" routeLength="628.05" waitingTime="13.00" waitingCount="1" stopTime="0.00" timeLoss="26.43" rerouteNo="0" devices="tripinfo_veh46" vType="veh_passenger" speedFactor="1.10" vaporized=""/>
    <tripinfo id="veh55" depart="124.00" departLane="675971774#0_0" departPos="5.10" departSpeed="8.31" departDelay="0.50" arrival="202.00" arrivalLane="166107155#0_0" arrivalPos="193.24" arrivalSpeed="8.09" duration="78.00" routeLength="540.15" waitingTime="0.00" waitingCount="0" stopTime="0.00" timeLoss="12.15" rerouteNo="0" devices="tripinfo_veh55" vType="veh_passenger" speedFactor="1.00" vaporized=""/>
    <tripinfo id="veh43" depart="97.00" departLane="673560717_1" departPos="2.85" departSpeed="0.00" departDelay="0.45" arrival="204.00" arrivalLane="171825747#0_1" arrivalPos="79.30" arrivalSpeed="6.96" duration="107.00" routeLength="642.01" waitingTime="11.00" waitingCount="1" stopTime="0.00" timeLoss="27.95" rerouteNo="0" devices="tripinfo_veh43" vType="veh_passenger" speedFactor="0.97" vaporized=""/>
    <tripinfo id="veh58" depart="131.00" departLane="1162743956#0_1" departPos="5.10" departSpeed="7.30" departDelay="0.77" arrival="204.00" arrivalLane="378872530#0_0" arrivalPos="68.18" arrivalSpeed="6.08" duration="73.00" routeLength="414.53" waitingTime="3.00" waitingCount="1" stopTime="0.00" timeLoss="16.07" rerouteNo="0" devices="tripinfo_veh58" vType="veh_passenger" speedFactor="0.88" vaporized=""/>
    <tripinfo id="veh53" depart="120.00" departLane="673560717_1" departPos="2.85" departSpeed="0.00" departDelay="0.99" arrival="207.00" arrivalLane="171825747#0_1" arrivalPos="79.30" arrivalSpeed="8.20" duration="87.00" routeLength="642.01" waitingTime="0.00" waitingCount="0" stopTime="0.00" timeLoss="12.73" rerouteNo="0" devices="tripinfo_veh53" vType="veh_passenger" speedFactor="1.04" vaporized=""/>
    <tripinfo id="veh48" depart="108.00" departLane="202438589#0_1" departPos="5.10" departSpeed="8.58" departDelay="0.22" arrival="210.00" arrivalLane="171825747#0_1" arrivalPos="79.30" arrivalSpeed="8.34" duration="102.00" routeLength="782.51" waitingTime="0.00" waitingCount="0" stopTime="0.00" timeLoss="10.65" rerouteNo="0" devices="tripinfo_veh48" vType="veh_passenger" speedFactor="1.03" vaporized=""/>
    <tripinfo id="pt_bus_0170A:1.0" depart="119.00" departLane="171825747#0_0" departPos="12.10" departSpeed="0.00" departDelay="0.00" arrival="211.00" arrivalLane="171825747#0_0" arrivalPos="79.30" arrivalSpeed="0.67" duration="92.00" routeLength="67.20" waitingTime="38.00" waitingCount="2" stopTime="29.00" timeLoss="54.86" rerouteNo="0" devices="tripinfo_pt_bus_0170A:1.0" vType="pt_bus" speedFactor="1.00" vaporized=""/>
    <tripinfo id="veh72" depart="162.00" departLane="1162743956#0_1" departPos="5.10" departSpeed="9.02" departDelay="0.33" arrival="212.00" arrivalLane="378872530#0_0" arrivalPos="68.18" arrivalSpeed="8.34" duration="50.00" routeLength="414.53" waitingTime="0.00" waitingCount="0" stopTime="0.00" timeLoss="3.69" rerouteNo="0" devices="tripinfo_veh72" vType="veh_passenger" speedFactor="1.08" vaporized=""/>
    <tripinfo id="veh62" depart="140.00" departLane="202438589#0_1" departPos="5.10" departSpeed="8.47" departDelay="0.79" arrival="219.00" arrivalLane="509283334#0_1" arrivalPos="175.26" arrivalSpeed="8.39" duration="79.00" routeLength="574.88" waitingTime="0.00" waitingCount="0" stopTime="0.00" timeLoss="11.42" rerouteNo="0" devices="tripinfo_veh62" vType="veh_passenger" speedFactor="1.02" vaporized=""/>
    <tripinfo id="pt_bus_0395:1.0" depart="165.00" departLane="166107155#0_0" departPos="12.10" departSpeed="0.00" departDelay="0.00" arrival="228.00" arrivalLane="166107155#0_0" arrivalPos="193.24" arrivalSpeed="8.28" duration="63.00" routeLength="181.14" waitingTime="0.00" waitingCount="0" stopTime="31.00" timeLoss="9.72" rerouteNo="0" devices="tripinfo_pt_bus_0395:1.0" vType="pt_bus" speedFactor="1.00" vaporized=""/>
    <tripinfo id="veh65" depart="146.00" departLane="179959896#0_1" departPos="5.10" departSpeed="0.00" departDelay="0.05" arrival="230.00" arrivalLane="-376306178_0" arrivalPos="9.47" arrivalSpeed="5.45" duration="84.00" routeLength="530.35" waitingTime="8.00" waitingCount="1" stopTime="0.00" timeLoss="19.87" rerouteNo="0" devices="tripinfo_veh65" vType="veh_passenger" speedFactor="1.00" vaporized=""/>
    <tripinfo id="veh67" depart="151.00" departLane="673560717_1" departPos="2.85" departSpeed="0.00" departDelay="0.56" arrival="236.00" arrivalLane="130306724#0_0" arrivalPos="67.66" arrivalSpeed="7.09" duration="85.00" routeLength="534.54" waitingTime="0.00" waitingCount="0" stopTime="0.00" timeLoss="13.53" rerouteNo="0" devices="tripinfo_veh67" vType="veh_passenger" speedFactor="0.90" vaporized=""/>
    <tripinfo id="veh70" depart="158.00" departLane="673560717_2" departPos="2.85" departSpeed="0.00" departDelay="0.82" arrival="244.00" arrivalLane="171825747#0_1" arrivalPos="79.30" arrivalSpeed="7.63" duration="86.00" routeLength="638.07" waitingTime="0.00" waitingCount="0" stopTime="0.00" timeLoss="10.83" rerouteNo="0" devices="tripinfo_veh70" vType="veh_passenger" speedFactor="1.02" vaporized=""/>
    <tripinfo id="veh85" depart="191.00" departLane="1162743956#0_1" departPos="5.10" departSpeed="7.83" departDelay="0.14" arrival="245.00" arrivalLane="28238524#0_0" arrivalPos="74.31" arrivalSpeed="7.76" duration="54.00" routeLength="329.71" waitingTime="3.00" waitingCount="1" stopTime="0.00" timeLoss="11.14" rerouteNo="0" devices="tripinfo_veh85" vType="veh_passenger" speedFactor="0.94" vaporized=""/>
    <tripinfo id="veh74" depart="167.00" departLane="673560717_1" departPos="2.85" departSpeed="0.00" departDelay="0.84" arrival="247.00" arrivalLane="130306724#0_0" arrivalPos="67.66" arrivalSpeed="7.52" duration="80.00" routeLength="530.60" waitingTime="2.00" waitingCount="2" stopTime="0.00" timeLoss="16.71" rerouteNo="0" devices="tripinfo_veh74" vType="veh_passenger" speedFactor="1.02" vaporized=""/>
    <tripinfo id="veh60" depart="135.00" departLane="376306178_0" departPos="5.10" departSpeed="4.75" departDelay="0.28" arrival="249.00" arrivalLane="166107155#0_0" arrivalPos="193.24" arrivalSpeed="6.08" duration="114.00" routeLength="633.61" waitingTime="3.00" waitingCount="2" stopTime="0.00" timeLoss="23.91" rerouteNo="0" devices="tripinfo_veh60" vType="veh_passenger" speedFactor="0.85" vaporized=""/>
    <tripinfo id="veh78" depart="176.00" departLane="673560717_1" departPos="2.85" departSpeed="0.00" departDelay="0.86" arrival="255.00" arrivalLane="130306724#0_0" arrivalPos="67.66" arrivalSpeed="6.26" duration="79.00" routeLength="534.54" waitingTime="0.00" waitingCount="0" stopTime="0.00" timeLoss="7.95" rerouteNo="0" devices="tripinfo_veh78" vType="veh_passenger" speedFactor="0.91" vaporized=""/>
    <tripinfo id="veh76" depart="171.00" departLane="161424705#0_0" departPos="5.10" departSpeed="7.81" departDelay="0.35" arrival="259.00" arrivalLane="179416932#0_0" arrivalPos="53.90" arrivalSpeed="6.70" duration="88.00" routeLength="578.32" waitingTime="2.00" waitingCount="1" stopTime="0.00" timeLoss="13.28" rerouteNo="0" devices="tripinfo_veh76" vType="veh_passenger" speedFactor="0.94" vaporized=""/>
    <tripinfo id="veh89" depart="200.00" departLane="129301692_0" departPos="5.10" departSpeed="0.00" departDelay="0.16" arrival="263.00" arrivalLane="171825747#0_1" arrivalPos="79.30" arrivalSpeed="8.51" duration="63.00" routeLength="466.59" waitingTime="0.00" waitingCount="0" stopTime="0.00" timeLoss="8.53" rerouteNo="0" devices="tripinfo_veh89" vType="veh_passenger" speedFactor="1.03" vaporized=""/>
    <tripinfo id="pt_bus_0395:0.0" depart="133.00" departLane="1162743956#0_0" departPos="12.10" departSpeed="0.00" departDelay="0.00" arrival="265.00" arrivalLane="166107155#0_0" arrivalPos="193.24" arrivalSpeed="8.30" duration="132.00" routeLength="365.62" waitingTime="8.00" waitingCount="1" stopTime="59.00" timeLoss="28.65" rerouteNo="0" devices="tripinfo_pt_bus_0395:0.0" vType="pt_bus" speedFactor="1.00" vaporized=""/>
    <tripinfo id="veh82" depart="185.00" departLane="161424705#0_0" departPos="5.10" departSpeed="8.52" departDelay="0.88" arrival="269.00" arrivalLane="171825747#0_1" arrivalPos="79.30" arrivalSpeed="7.84" duration="84.00" routeLength="639.03" waitingTime="0.00" waitingCount="0" stopTime="0.00" timeLoss="8.34" rerouteNo="0" devices="tripinfo_veh82" vType="veh_passenger" speedFactor="1.02" vaporized=""/>
    <tripinfo id="veh87" depart="196.00" departLane="179959896#0_1" departPos="5.10" departSpeed="0.00" departDelay="0.65" arrival="271.00" arrivalLane="130306724#0_0" arrivalPos="67.66" arrivalSpeed="7.13" duration="75.00" routeLength="520.58" waitingTime="0.00" waitingCount="0" stopTime="0.00" timeLoss="8.81" rerouteNo="0" devices="tripinfo_veh87" vType="veh_passenger" speedFactor="0.96" vaporized=""/>
    <tripinfo id="veh80" depart="180.00" departLane="202438589#0_1" departPos="5.10" departSpeed="8.66" departDelay="0.37" arrival="275.00" arrivalLane="-376306178_0" arrivalPos="9.47" arrivalSpeed="4.61" duration="95.00" routeLength="684.81" waitingTime="0.00" waitingCount="0" stopTime="0.00" timeLoss="15.34" rerouteNo="0" devices="tripinfo_veh80" vType="veh_passenger" speedFactor="1.04" vaporized=""/>
    <tripinfo id="pt_bus_0171:0.0" depart="132.00" departLane="171825747#0_0" departPos="12.10" departSpeed="0.00" departDelay="1.00" arrival="288.00" arrivalLane="171825747#0_0" arrivalPos="79.30" arrivalSpeed="1.04" duration="156.00" routeLength="67.20" waitingTime="58.00" waitingCount="2" stopTime="69.00" timeLoss="78.82" rerouteNo="0" devices="tripinfo_pt_bus_0171:0.0" vType="pt_bus" speedFactor="1.00" vaporized=""/>
    <tripinfo id="pt_bus_0245:0.0" depart="204.00" departLane="666985090_0" departPos="12.10" departSpeed="0.00" departDelay="0.00" arrival="303.00" arrivalLane="378872530#0_0" arrivalPos="68.18" arrivalSpeed="7.89" duration="99.00" routeLength="474.90" waitingTime="0.00" waitingCount="0" stopTime="28.00" timeLoss="13.07" rerouteNo="0" devices="tripinfo_pt_bus_0245:0.0" vType="pt_bus" speedFactor="1.00" vaporized=""/>
    <tripinfo id="pt_bus_121:0.0" depart="15.00" departLane="161424705#0_0" departPos="12.10" departSpeed="0.00" departDelay="0.00" arrival="304.00" arrivalLane="166107155#0_0" arrivalPos="193.24" arrivalSpeed="7.82" duration="289.00" routeLength="1011.64" waitingTime="32.00" waitingCount="3" stopTime="92.00" timeLoss="74.68" rerouteNo="0" devices="tripinfo_pt_bus_121:0.0" vType="pt_bus" speedFactor="1.00" vaporized=""/>
    <tripinfo id="pt_bus_0171:1.0" depart="132.00" departLane="675971774#0_0" departPos="12.10" departSpeed="0.00" departDelay="0.00" arrival="325.00" arrivalLane="171825747#0_0" arrivalPos="79.30" arrivalSpeed="0.71" duration="193.00" routeLength="150.23" waitingTime="115.00" waitingCount="4" stopTime="28.00" timeLoss="146.68" rerouteNo="0" devices="tripinfo_pt_bus_0171:1.0" vType="pt_bus" speedFactor="1.00" vaporized=""/>
    <tripinfo id="pt_bus_33:0.0" depart="201.00" departLane="161424705#0_0" departPos="12.10" departSpeed="0.00" departDelay="0.00" arrival="343.00" arrivalLane="166107155#0_0" arrivalPos="193.24" arrivalSpeed="8.22" duration="142.00" routeLength="438.35" waitingTime="36.00" waitingCount="2" stopTime="31.00" timeLoss="57.78" rerouteNo="0" devices="tripinfo_pt_bus_33:0.0" vType="pt_bus" speedFactor="1.00" vaporized=""/>
    <tripinfo id="pt_bus_0175:1.0" depart="52.00" departLane="1162743956#0_0" departPos="12.10" departSpeed="0.00" departDelay="0.00" arrival="364.00" arrivalLane="171825747#0_0" arrivalPos="79.30" arrivalSpeed="0.66" duration="312.00" routeLength="565.92" waitingTime="138.00" waitingCount="5" stopTime="63.00" timeLoss="180.99" rerouteNo="0" devices="tripinfo_pt_bus_0175:1.0" vType="pt_bus" speedFactor="1.00" vaporized=""/>
    <tripinfo id="pt_bus_0174A:0.0" depart="88.00" departLane="1162743956#0_0" departPos="12.10" departSpeed="0.00" departDelay="33.00" arrival="392.00" arrivalLane="171825747#0_0" arrivalPos="79.30" arrivalSpeed="1.00" duration="304.00" routeLength="565.92" waitingTime="167.00" waitingCount="6" stopTime="20.00" timeLoss="215.94" rerouteNo="0" devices="tripinfo_pt_bus_0174A:0.0" vType="pt_bus" speedFactor="1.00" vaporized=""/>
    <tripinfo id="pt_bus_S2:0.0" depart="303.00" departLane="1162743956#0_0" departPos="12.10" departSpeed="0.00" departDelay="0.00" arrival="398.00" arrivalLane="378872530#0_0" arrivalPos="68.18" arrivalSpeed="7.88" duration="95.00" routeLength="407.53" waitingTime="0.00" waitingCount="0" stopTime="29.00" timeLoss="16.57" rerouteNo="0" devices="tripinfo_pt_bus_S2:0.0" vType="pt_bus" speedFactor="1.00" vaporized=""/>
    <tripinfo id="pt_bus_0177:0.0" depart="326.00" departLane="171825747#0_0" departPos="12.10" departSpeed="0.00" departDelay="0.00" arrival="420.00" arrivalLane="171825747#0_0" arrivalPos="79.30" arrivalSpeed="1.13" duration="94.00" routeLength="67.20" waitingTime="49.00" waitingCount="2" stopTime="20.00" timeLoss="65.80" rerouteNo="0" devices="tripinfo_pt_bus_0177:0.0" vType="pt_bus" speedFactor="1.00" vaporized=""/>
    <tripinfo id="pt_bus_4:0.0" depart="253.00" departLane="161424705#0_0" departPos="12.10" departSpeed="0.00" departDelay="0.00" arrival="431.00" arrivalLane="171825747#0_1" arrivalPos="79.30" arrivalSpeed="5.82" duration="178.00" routeLength="632.03" waitingTime="18.00" waitingCount="1" stopTime="50.00" timeLoss="51.86" rerouteNo="0" devices="tripinfo_pt_bus_4:0.0" vType="pt_bus" speedFactor="1.00" vaporized=""/>
    <tripinfo id="pt_bus_0170B:0.0" depart="353.00" departLane="171825747#0_0" departPos="12.10" departSpeed="0.00" departDelay="0.00" arrival="447.00" arrivalLane="171825747#0_0" arrivalPos="79.30" arrivalSpeed="0.87" duration="94.00" routeLength="67.20" waitingTime="42.00" waitingCount="3" stopTime="20.00" timeLoss="65.84" rerouteNo="0" devices="tripinfo_pt_bus_0170B:0.0" vType="pt_bus" speedFactor="1.00" vaporized=""/>
    <tripinfo id="pt_bus_0390:1.0" depart="406.00" departLane="166107155#0_0" departPos="12.10" departSpeed="0.00" departDelay="0.00" arrival="468.00" arrivalLane="166107155#0_0" arrivalPos="193.24" arrivalSpeed="7.90" duration="62.00" routeLength="181.14" waitingTime="0.00" waitingCount="0" stopTime="29.00" timeLoss="11.15" rerouteNo="0" devices="tripinfo_pt_bus_0390:1.0" vType="pt_bus" speedFactor="1.00" vaporized=""/>
    <tripinfo id="pt_bus_0170B:1.0" depart="418.00" departLane="675971774#0_0" departPos="12.10" departSpeed="0.00" departDelay="0.00" arrival="475.00" arrivalLane="171825747#0_0" arrivalPos="79.30" arrivalSpeed="0.93" duration="57.00" routeLength="150.23" waitingTime="6.00" waitingCount="1" stopTime="20.00" timeLoss="18.61" rerouteNo="0" devices="tripinfo_pt_bus_0170B:1.0" vType="pt_bus" speedFactor="1.00" vaporized=""/>
    <tripinfo id="pt_bus_0390:0.0" depart="362.00" departLane="1162743956#0_0" departPos="12.10" departSpeed="0.00" departDelay="0.00" arrival="506.00" arrivalLane="166107155#0_0" arrivalPos="193.24" arrivalSpeed="8.00" duration="144.00" routeLength="365.62" waitingTime="20.00" waitingCount="2" stopTime="59.00" timeLoss="40.05" rerouteNo="0" devices="tripinfo_pt_bus_0390:0.0" vType="pt_bus" speedFactor="1.00" vaporized=""/>
    <tripinfo id="pt_bus_S2:1.0" depart="484.00" departLane="171825747#0_0" departPos="12.10" departSpeed="0.00" departDelay="0.00" arrival="533.00" arrivalLane="171825747#0_0" arrivalPos="79.30" arrivalSpeed="8.17" duration="49.00" routeLength="67.20" waitingTime="0.00" waitingCount="0" stopTime="32.00" timeLoss="8.13" rerouteNo="0" devices="tripinfo_pt_bus_S2:1.0" vType="pt_bus" speedFactor="1.00" vaporized=""/>
    <tripinfo id="pt_bus_0245:1.0" depart="389.00" departLane="161424705#0_0" departPos="12.10" departSpeed="0.00" departDelay="0.00" arrival="553.00" arrivalLane="666985090_0" arrivalPos="44.79" arrivalSpeed="3.70" duration="164.00" routeLength="598.07" waitingTime="36.00" waitingCount="2" stopTime="31.00" timeLoss="60.98" rerouteNo="0" devices="tripinfo_pt_bus_0245:1.0" vType="pt_bus" speedFactor="1.00" vaporized=""/>
    <tripinfo id="pt_bus_33:1.0" depart="483.00" departLane="202438589#0_0" departPos="12.10" departSpeed="0.00" departDelay="0.00" arrival="559.00" arrivalLane="378872530#0_0" arrivalPos="68.18" arrivalSpeed="7.83" duration="76.00" routeLength="288.18" waitingTime="0.00" waitingCount="0" stopTime="29.00" timeLoss="12.53" rerouteNo="0" devices="tripinfo_pt_bus_33:1.0" vType="pt_bus" speedFactor="1.00" vaporized=""/>
    <tripinfo id="pt_bus_0177:1.0" depart="441.00" departLane="1162743956#0_0" departPos="12.10" departSpeed="0.00" departDelay="0.00" arrival="596.00" arrivalLane="171825747#0_0" arrivalPos="79.30" arrivalSpeed="0.84" duration="155.00" routeLength="565.92" waitingTime="5.00" waitingCount="1" stopTime="65.00" timeLoss="21.97" rerouteNo="0" devices="tripinfo_pt_bus_0177:1.0" vType="pt_bus" speedFactor="1.00" vaporized=""/>
    <tripinfo id="pt_bus_9:0.0" depart="383.00" departLane="161424705#0_0" departPos="12.10" departSpeed="0.00" departDelay="0.00" arrival="605.00" arrivalLane="166107155#0_0" arrivalPos="193.24" arrivalSpeed="8.14" duration="222.00" routeLength="1011.64" waitingTime="8.00" waitingCount="1" stopTime="65.00" timeLoss="34.91" rerouteNo="0" devices="tripinfo_pt_bus_9:0.0" vType="pt_bus" speedFactor="1.00" vaporized=""/>
    <tripinfo id="pt_bus_8:0.0" depart="485.00" departLane="161424705#0_0" departPos="12.10" departSpeed="0.00" departDelay="0.00" arrival="609.00" arrivalLane="171825747#0_0" arrivalPos="79.30" arrivalSpeed="7.48" duration="124.00" routeLength="632.03" waitingTime="0.00" waitingCount="0" stopTime="27.00" timeLoss="20.95" rerouteNo="0" devices="tripinfo_pt_bus_8:0.0" vType="pt_bus" speedFactor="1.00" vaporized=""/>
    <tripinfo id="motorcycle2" depart="472.00" departLane="6066208_0" departPos="2.30" departSpeed="6.13" departDelay="0.47" arrival="611.00" arrivalLane="184573005#0_0" arrivalPos="12.24" arrivalSpeed="7.74" duration="139.00" routeLength="842.47" waitingTime="13.00" waitingCount="2" stopTime="0.00" timeLoss="38.28" rerouteNo="1" devices="tripinfo_motorcycle2 routing_motorcycle2" vType="motorcycle_motorcycle" speedFactor="1.01" vaporized=""/>
    <tripinfo id="pt_bus_13:1.0" depart="535.00" departLane="202438589#0_0" departPos="12.10" departSpeed="0.00" departDelay="0.00" arrival="611.00" arrivalLane="378872530#0_0" arrivalPos="68.18" arrivalSpeed="8.04" duration="76.00" routeLength="288.18" waitingTime="0.00" waitingCount="0" stopTime="30.00" timeLoss="11.43" rerouteNo="0" devices="tripinfo_pt_bus_13:1.0" vType="pt_bus" speedFactor="1.00" vaporized=""/>